 Entering Gaussian System, Link 0=g16
 Initial command:
 /home/center/opt/aarch64/apps/gaussian16/c01/g16/l1.exe "/data/tmp/Gtmp/1006918/Gau-48.inp" -scrdir="/data/tmp/Gtmp/1006918/"
 Entering Link 1 = /home/center/opt/aarch64/apps/gaussian16/c01/g16/l1.exe PID=        49.
  
 Copyright (c) 1988-2019, Gaussian, Inc.  All Rights Reserved.
  
 This is part of the Gaussian(R) 16 program.  It is based on
 the Gaussian(R) 09 system (copyright 2009, Gaussian, Inc.),
 the Gaussian(R) 03 system (copyright 2003, Gaussian, Inc.),
 the Gaussian(R) 98 system (copyright 1998, Gaussian, Inc.),
 the Gaussian(R) 94 system (copyright 1995, Gaussian, Inc.),
 the Gaussian 92(TM) system (copyright 1992, Gaussian, Inc.),
 the Gaussian 90(TM) system (copyright 1990, Gaussian, Inc.),
 the Gaussian 88(TM) system (copyright 1988, Gaussian, Inc.),
 the Gaussian 86(TM) system (copyright 1986, Carnegie Mellon
 University), and the Gaussian 82(TM) system (copyright 1983,
 Carnegie Mellon University). Gaussian is a federally registered
 trademark of Gaussian, Inc.
  
 This software contains proprietary and confidential information,
 including trade secrets, belonging to Gaussian, Inc.
  
 This software is provided under written license and may be
 used, copied, transmitted, or stored only in accord with that
 written license.
  
 The following legend is applicable only to US Government
 contracts under FAR:
  
                    RESTRICTED RIGHTS LEGEND
  
 Use, reproduction and disclosure by the US Government is
 subject to restrictions as set forth in subparagraphs (a)
 and (c) of the Commercial Computer Software - Restricted
 Rights clause in FAR 52.227-19.
  
 Gaussian, Inc.
 340 Quinnipiac St., Bldg. 40, Wallingford CT 06492
  
  
 ---------------------------------------------------------------
 Warning -- This program may not be used in any manner that
 competes with the business of Gaussian, Inc. or will provide
 assistance to any competitor of Gaussian, Inc.  The licensee
 of this program is prohibited from giving any competitor of
 Gaussian, Inc. access to this program.  By using this program,
 the user acknowledges that Gaussian, Inc. is engaged in the
 business of creating and licensing software in the field of
 computational chemistry and represents and warrants to the
 licensee that it is not a competitor of Gaussian, Inc. and that
 it will not use this program in any manner prohibited above.
 ---------------------------------------------------------------
  

 Cite this work as:
 Gaussian 16, Revision C.01,
 M. J. Frisch, G. W. Trucks, H. B. Schlegel, G. E. Scuseria, 
 M. A. Robb, J. R. Cheeseman, G. Scalmani, V. Barone, 
 G. A. Petersson, H. Nakatsuji, X. Li, M. Caricato, A. V. Marenich, 
 J. Bloino, B. G. Janesko, R. Gomperts, B. Mennucci, H. P. Hratchian, 
 J. V. Ortiz, A. F. Izmaylov, J. L. Sonnenberg, D. Williams-Young, 
 F. Ding, F. Lipparini, F. Egidi, J. Goings, B. Peng, A. Petrone, 
 T. Henderson, D. Ranasinghe, V. G. Zakrzewski, J. Gao, N. Rega, 
 G. Zheng, W. Liang, M. Hada, M. Ehara, K. Toyota, R. Fukuda, 
 J. Hasegawa, M. Ishida, T. Nakajima, Y. Honda, O. Kitao, H. Nakai, 
 T. Vreven, K. Throssell, J. A. Montgomery, Jr., J. E. Peralta, 
 F. Ogliaro, M. J. Bearpark, J. J. Heyd, E. N. Brothers, K. N. Kudin, 
 V. N. Staroverov, T. A. Keith, R. Kobayashi, J. Normand, 
 K. Raghavachari, A. P. Rendell, J. C. Burant, S. S. Iyengar, 
 J. Tomasi, M. Cossi, J. M. Millam, M. Klene, C. Adamo, R. Cammi, 
 J. W. Ochterski, R. L. Martin, K. Morokuma, O. Farkas, 
 J. B. Foresman, and D. J. Fox, Gaussian, Inc., Wallingford CT, 2019.
 
 ************************************************
 Gaussian 16:  Fujitsu-Arm-G16RevC.01  3-Jul-2019
                   27-Sep-2023 
 ************************************************
 %mem=24GB
 %nproc=42
 Will use up to   42 processors via shared memory.
 -------------------------------------------------------------
 #P TEST b3lyp/6-311G** EmpiricalDispersion=GD3 counterpoise=2
 -------------------------------------------------------------
 1/38=1,62=2,172=1/1;
 2/12=2,17=6,18=5,40=1/2;
 1/38=1,53=2,62=2,63=1/22;
 3/5=4,6=6,7=101,11=2,25=1,30=1,74=-5,124=31/1,2,3;
 4//1;
 5/5=2,38=5/2;
 6/7=2,8=2,9=2,10=2,28=1/1;
 1/53=2,62=2,63=1/22;
 3/5=7,6=11,7=101,11=2,25=1,30=1,74=-5,82=7,124=31/1,2,3;
 4//1;
 5/5=2,38=5/2;
 6/7=2,8=2,9=2,10=2,28=1/1;
 1/53=2,62=2,63=1/22(-4);
 99/5=1,9=1/99;
 Leave Link    1 at Wed Sep 27 16:37:35 2023, MaxMem=  3221225472 cpu:               6.6 elap:               0.2
 (Enter /home/center/opt/aarch64/apps/gaussian16/c01/g16/l101.exe)
 ----------------------------
 pentacene_A1=0_A2=0_A3=45_t1
 ----------------------------
 Symbolic Z-matrix:
 Charge =  0 Multiplicity = 1 in supermolecule
 Charge =  0 Multiplicity = 1 in fragment      1.
 Charge =  0 Multiplicity = 1 in fragment      2.
 C(Fragment=1)        -0.50395   0.52395  -3.66128 
 C(Fragment=1)         0.52395  -0.50395  -3.66128 
 C(Fragment=1)        -0.98612   1.00612  -4.92359 
 C(Fragment=1)         1.00613  -0.98613  -4.92359 
 C(Fragment=1)        -0.49632   0.51632  -6.09636 
 C(Fragment=1)         0.51632  -0.49632  -6.09636 
 C(Fragment=1)        -0.98447   1.00447  -2.45332 
 C(Fragment=1)        -0.50449   0.52449  -1.21403 
 C(Fragment=1)         1.00447  -0.98447  -2.45332 
 C(Fragment=1)         0.52449  -0.50449  -1.21403 
 H(Fragment=1)        -1.75336   1.77336  -4.92326 
 H(Fragment=1)        -1.75219   1.77219  -2.45393 
 H(Fragment=1)         1.77219  -1.75219  -2.45393 
 H(Fragment=1)         1.77336  -1.75336  -4.92326 
 H(Fragment=1)         0.89056  -0.87056  -7.04253 
 H(Fragment=1)        -0.87056   0.89056  -7.04253 
 C(Fragment=1)        -0.98482   1.00482   0.01 
 C(Fragment=1)        -0.50449   0.52449   1.23403 
 C(Fragment=1)         1.00482  -0.98482   0.01 
 C(Fragment=1)         0.52449  -0.50449   1.23403 
 H(Fragment=1)        -1.75247   1.77247   0.01 
 H(Fragment=1)         1.77247  -1.75247   0.01 
 C(Fragment=1)        -0.98447   1.00447   2.47332 
 C(Fragment=1)        -0.50395   0.52395   3.68128 
 C(Fragment=1)         1.00447  -0.98447   2.47332 
 C(Fragment=1)         0.52395  -0.50395   3.68128 
 H(Fragment=1)        -1.75219   1.77219   2.47393 
 H(Fragment=1)         1.77219  -1.75219   2.47393 
 C(Fragment=1)        -0.98612   1.00612   4.94359 
 C(Fragment=1)        -0.49632   0.51632   6.11636 
 C(Fragment=1)         1.00612  -0.98612   4.94359 
 C(Fragment=1)         0.51632  -0.49632   6.11636 
 H(Fragment=1)        -1.75336   1.77336   4.94326 
 H(Fragment=1)        -0.87056   0.89056   7.06253 
 H(Fragment=1)         0.89056  -0.87056   7.06253 
 H(Fragment=1)         1.77336  -1.75336   4.94326 
 C(Fragment=2)         2.52395   6.52395  -3.66128 
 C(Fragment=2)         1.49605   5.49605  -3.66128 
 C(Fragment=2)         3.00612   7.00612  -4.92359 
 C(Fragment=2)         1.01387   5.01387  -4.92359 
 C(Fragment=2)         2.51632   6.51632  -6.09636 
 C(Fragment=2)         1.50368   5.50368  -6.09636 
 C(Fragment=2)         3.00447   7.00447  -2.45332 
 C(Fragment=2)         2.52449   6.52449  -1.21403 
 C(Fragment=2)         1.01553   5.01553  -2.45332 
 C(Fragment=2)         1.49551   5.49551  -1.21403 
 H(Fragment=2)         3.77336   7.77336  -4.92326 
 H(Fragment=2)         3.77219   7.77219  -2.45393 
 H(Fragment=2)         0.24781   4.24781  -2.45393 
 H(Fragment=2)         0.24664   4.24664  -4.92326 
 H(Fragment=2)         1.12944   5.12944  -7.04253 
 H(Fragment=2)         2.89056   6.89056  -7.04253 
 C(Fragment=2)         3.00482   7.00482   0.01 
 C(Fragment=2)         2.52449   6.52449   1.23403 
 C(Fragment=2)         1.01518   5.01518   0.01 
 C(Fragment=2)         1.49551   5.49551   1.23403 
 H(Fragment=2)         3.77247   7.77247   0.01 
 H(Fragment=2)         0.24753   4.24753   0.01 
 C(Fragment=2)         3.00447   7.00447   2.47332 
 C(Fragment=2)         2.52395   6.52395   3.68128 
 C(Fragment=2)         1.01553   5.01553   2.47332 
 C(Fragment=2)         1.49605   5.49605   3.68128 
 H(Fragment=2)         3.77219   7.77219   2.47393 
 H(Fragment=2)         0.24781   4.24781   2.47393 
 C(Fragment=2)         3.00612   7.00612   4.94359 
 C(Fragment=2)         2.51632   6.51632   6.11636 
 C(Fragment=2)         1.01388   5.01388   4.94359 
 C(Fragment=2)         1.50368   5.50368   6.11636 
 H(Fragment=2)         3.77336   7.77336   4.94326 
 H(Fragment=2)         2.89056   6.89056   7.06253 
 H(Fragment=2)         1.12944   5.12944   7.06253 
 H(Fragment=2)         0.24664   4.24664   4.94326 
 
 ITRead=  0  0  0  0  0  0  0  0  0  0  0  0  0  0  0  0  0  0  0  0
 ITRead=  0  0  0  0  0  0  0  0  0  0  0  0  0  0  0  0  0  0  0  0
 ITRead=  0  0  0  0  0  0  0  0  0  0  0  0  0  0  0  0  0  0  0  0
 ITRead=  0  0  0  0  0  0  0  0  0  0  0  0
 MicOpt= -1 -1 -1 -1 -1 -1 -1 -1 -1 -1 -1 -1 -1 -1 -1 -1 -1 -1 -1 -1
 MicOpt= -1 -1 -1 -1 -1 -1 -1 -1 -1 -1 -1 -1 -1 -1 -1 -1 -1 -1 -1 -1
 MicOpt= -1 -1 -1 -1 -1 -1 -1 -1 -1 -1 -1 -1 -1 -1 -1 -1 -1 -1 -1 -1
 MicOpt= -1 -1 -1 -1 -1 -1 -1 -1 -1 -1 -1 -1
 NAtoms=     72 NQM=       72 NQMF=       0 NMMI=      0 NMMIF=      0
                NMic=       0 NMicF=      0.
                    Isotopes and Nuclear Properties:
 (Nuclear quadrupole moments (NQMom) in fm**2, nuclear magnetic moments (NMagM)
  in nuclear magnetons)

  Atom         1           2           3           4           5           6           7           8           9          10
 IAtWgt=          12          12          12          12          12          12          12          12          12          12
 AtmWgt=  12.0000000  12.0000000  12.0000000  12.0000000  12.0000000  12.0000000  12.0000000  12.0000000  12.0000000  12.0000000
 NucSpn=           0           0           0           0           0           0           0           0           0           0
 AtZEff=   0.0000000   0.0000000   0.0000000   0.0000000   0.0000000   0.0000000   0.0000000   0.0000000   0.0000000   0.0000000
 NQMom=    0.0000000   0.0000000   0.0000000   0.0000000   0.0000000   0.0000000   0.0000000   0.0000000   0.0000000   0.0000000
 NMagM=    0.0000000   0.0000000   0.0000000   0.0000000   0.0000000   0.0000000   0.0000000   0.0000000   0.0000000   0.0000000
 AtZNuc=   6.0000000   6.0000000   6.0000000   6.0000000   6.0000000   6.0000000   6.0000000   6.0000000   6.0000000   6.0000000

  Atom        11          12          13          14          15          16          17          18          19          20
 IAtWgt=           1           1           1           1           1           1          12          12          12          12
 AtmWgt=   1.0078250   1.0078250   1.0078250   1.0078250   1.0078250   1.0078250  12.0000000  12.0000000  12.0000000  12.0000000
 NucSpn=           1           1           1           1           1           1           0           0           0           0
 AtZEff=   0.0000000   0.0000000   0.0000000   0.0000000   0.0000000   0.0000000   0.0000000   0.0000000   0.0000000   0.0000000
 NQMom=    0.0000000   0.0000000   0.0000000   0.0000000   0.0000000   0.0000000   0.0000000   0.0000000   0.0000000   0.0000000
 NMagM=    2.7928460   2.7928460   2.7928460   2.7928460   2.7928460   2.7928460   0.0000000   0.0000000   0.0000000   0.0000000
 AtZNuc=   1.0000000   1.0000000   1.0000000   1.0000000   1.0000000   1.0000000   6.0000000   6.0000000   6.0000000   6.0000000

  Atom        21          22          23          24          25          26          27          28          29          30
 IAtWgt=           1           1          12          12          12          12           1           1          12          12
 AtmWgt=   1.0078250   1.0078250  12.0000000  12.0000000  12.0000000  12.0000000   1.0078250   1.0078250  12.0000000  12.0000000
 NucSpn=           1           1           0           0           0           0           1           1           0           0
 AtZEff=   0.0000000   0.0000000   0.0000000   0.0000000   0.0000000   0.0000000   0.0000000   0.0000000   0.0000000   0.0000000
 NQMom=    0.0000000   0.0000000   0.0000000   0.0000000   0.0000000   0.0000000   0.0000000   0.0000000   0.0000000   0.0000000
 NMagM=    2.7928460   2.7928460   0.0000000   0.0000000   0.0000000   0.0000000   2.7928460   2.7928460   0.0000000   0.0000000
 AtZNuc=   1.0000000   1.0000000   6.0000000   6.0000000   6.0000000   6.0000000   1.0000000   1.0000000   6.0000000   6.0000000

  Atom        31          32          33          34          35          36          37          38          39          40
 IAtWgt=          12          12           1           1           1           1          12          12          12          12
 AtmWgt=  12.0000000  12.0000000   1.0078250   1.0078250   1.0078250   1.0078250  12.0000000  12.0000000  12.0000000  12.0000000
 NucSpn=           0           0           1           1           1           1           0           0           0           0
 AtZEff=   0.0000000   0.0000000   0.0000000   0.0000000   0.0000000   0.0000000   0.0000000   0.0000000   0.0000000   0.0000000
 NQMom=    0.0000000   0.0000000   0.0000000   0.0000000   0.0000000   0.0000000   0.0000000   0.0000000   0.0000000   0.0000000
 NMagM=    0.0000000   0.0000000   2.7928460   2.7928460   2.7928460   2.7928460   0.0000000   0.0000000   0.0000000   0.0000000
 AtZNuc=   6.0000000   6.0000000   1.0000000   1.0000000   1.0000000   1.0000000   6.0000000   6.0000000   6.0000000   6.0000000

  Atom        41          42          43          44          45          46          47          48          49          50
 IAtWgt=          12          12          12          12          12          12           1           1           1           1
 AtmWgt=  12.0000000  12.0000000  12.0000000  12.0000000  12.0000000  12.0000000   1.0078250   1.0078250   1.0078250   1.0078250
 NucSpn=           0           0           0           0           0           0           1           1           1           1
 AtZEff=   0.0000000   0.0000000   0.0000000   0.0000000   0.0000000   0.0000000   0.0000000   0.0000000   0.0000000   0.0000000
 NQMom=    0.0000000   0.0000000   0.0000000   0.0000000   0.0000000   0.0000000   0.0000000   0.0000000   0.0000000   0.0000000
 NMagM=    0.0000000   0.0000000   0.0000000   0.0000000   0.0000000   0.0000000   2.7928460   2.7928460   2.7928460   2.7928460
 AtZNuc=   6.0000000   6.0000000   6.0000000   6.0000000   6.0000000   6.0000000   1.0000000   1.0000000   1.0000000   1.0000000

  Atom        51          52          53          54          55          56          57          58          59          60
 IAtWgt=           1           1          12          12          12          12           1           1          12          12
 AtmWgt=   1.0078250   1.0078250  12.0000000  12.0000000  12.0000000  12.0000000   1.0078250   1.0078250  12.0000000  12.0000000
 NucSpn=           1           1           0           0           0           0           1           1           0           0
 AtZEff=   0.0000000   0.0000000   0.0000000   0.0000000   0.0000000   0.0000000   0.0000000   0.0000000   0.0000000   0.0000000
 NQMom=    0.0000000   0.0000000   0.0000000   0.0000000   0.0000000   0.0000000   0.0000000   0.0000000   0.0000000   0.0000000
 NMagM=    2.7928460   2.7928460   0.0000000   0.0000000   0.0000000   0.0000000   2.7928460   2.7928460   0.0000000   0.0000000
 AtZNuc=   1.0000000   1.0000000   6.0000000   6.0000000   6.0000000   6.0000000   1.0000000   1.0000000   6.0000000   6.0000000

  Atom        61          62          63          64          65          66          67          68          69          70
 IAtWgt=          12          12           1           1          12          12          12          12           1           1
 AtmWgt=  12.0000000  12.0000000   1.0078250   1.0078250  12.0000000  12.0000000  12.0000000  12.0000000   1.0078250   1.0078250
 NucSpn=           0           0           1           1           0           0           0           0           1           1
 AtZEff=   0.0000000   0.0000000   0.0000000   0.0000000   0.0000000   0.0000000   0.0000000   0.0000000   0.0000000   0.0000000
 NQMom=    0.0000000   0.0000000   0.0000000   0.0000000   0.0000000   0.0000000   0.0000000   0.0000000   0.0000000   0.0000000
 NMagM=    0.0000000   0.0000000   2.7928460   2.7928460   0.0000000   0.0000000   0.0000000   0.0000000   2.7928460   2.7928460
 AtZNuc=   6.0000000   6.0000000   1.0000000   1.0000000   6.0000000   6.0000000   6.0000000   6.0000000   1.0000000   1.0000000

  Atom        71          72
 IAtWgt=           1           1
 AtmWgt=   1.0078250   1.0078250
 NucSpn=           1           1
 AtZEff=   0.0000000   0.0000000
 NQMom=    0.0000000   0.0000000
 NMagM=    2.7928460   2.7928460
 AtZNuc=   1.0000000   1.0000000
 Leave Link  101 at Wed Sep 27 16:37:37 2023, MaxMem=  3221225472 cpu:               3.2 elap:               0.1
 (Enter /home/center/opt/aarch64/apps/gaussian16/c01/g16/l202.exe)
 Stoichiometry    C44H28
 Framework group  CS[SG(C4H4),X(C40H24)]
 Deg. of freedom   109
 Full point group                 CS      NOp   2
 Largest Abelian subgroup         CS      NOp   2
 Largest concise Abelian subgroup CS      NOp   2
                         Standard orientation:                         
 ---------------------------------------------------------------------
 Center     Atomic      Atomic             Coordinates (Angstroms)
 Number     Number       Type             X           Y           Z
 ---------------------------------------------------------------------
      1          6           0        2.828427   -0.687381    3.671276
      2          6           0        2.828427   -2.141046    3.671276
      3          6           0        2.828427   -0.005480    4.933593
      4          6           0        2.828427   -2.822947    4.933593
      5          6           0        2.828427   -0.698167    6.106357
      6          6           0        2.828427   -2.130261    6.106357
      7          6           0        2.828427   -0.007823    2.463318
      8          6           0        2.828427   -0.686617    1.224029
      9          6           0        2.828427   -2.820604    2.463317
     10          6           0        2.828427   -2.141810    1.224029
     11          1           0        2.828427    1.079548    4.933260
     12          1           0        2.828427    1.077895    2.463929
     13          1           0        2.828427   -3.906321    2.463929
     14          1           0        2.828427   -3.907975    4.933260
     15          1           0        2.828427   -2.659509    7.052528
     16          1           0        2.828427   -0.168919    7.052528
     17          6           0        2.828427   -0.007328    0.000000
     18          6           0        2.828427   -0.686617   -1.224029
     19          6           0        2.828427   -2.821099    0.000000
     20          6           0        2.828427   -2.141810   -1.224029
     21          1           0        2.828427    1.078295    0.000000
     22          1           0        2.828427   -3.906721    0.000000
     23          6           0        2.828427   -0.007823   -2.463318
     24          6           0        2.828427   -0.687381   -3.671276
     25          6           0        2.828427   -2.820604   -2.463317
     26          6           0        2.828427   -2.141046   -3.671276
     27          1           0        2.828427    1.077895   -2.463929
     28          1           0        2.828427   -3.906321   -2.463929
     29          6           0        2.828427   -0.005480   -4.933593
     30          6           0        2.828427   -0.698167   -6.106357
     31          6           0        2.828427   -2.822947   -4.933593
     32          6           0        2.828427   -2.130261   -6.106357
     33          1           0        2.828427    1.079548   -4.933260
     34          1           0        2.828427   -0.168919   -7.052528
     35          1           0        2.828427   -2.659509   -7.052528
     36          1           0        2.828427   -3.907975   -4.933260
     37          6           0       -3.555259    1.414214    3.671276
     38          6           0       -2.101595    1.414214    3.671276
     39          6           0       -4.237160    1.414214    4.933593
     40          6           0       -1.419694    1.414214    4.933593
     41          6           0       -3.544474    1.414214    6.106357
     42          6           0       -2.112380    1.414214    6.106357
     43          6           0       -4.234818    1.414214    2.463318
     44          6           0       -3.556024    1.414214    1.224029
     45          6           0       -1.422036    1.414214    2.463317
     46          6           0       -2.100830    1.414214    1.224029
     47          1           0       -5.322189    1.414214    4.933260
     48          1           0       -5.320535    1.414214    2.463929
     49          1           0       -0.336320    1.414214    2.463929
     50          1           0       -0.334665    1.414214    4.933260
     51          1           0       -1.583132    1.414214    7.052528
     52          1           0       -4.073722    1.414214    7.052528
     53          6           0       -4.235313    1.414214    0.000000
     54          6           0       -3.556024    1.414214   -1.224029
     55          6           0       -1.421541    1.414214    0.000000
     56          6           0       -2.100830    1.414214   -1.224029
     57          1           0       -5.320936    1.414214    0.000000
     58          1           0       -0.335920    1.414214    0.000000
     59          6           0       -4.234818    1.414214   -2.463318
     60          6           0       -3.555259    1.414214   -3.671276
     61          6           0       -1.422036    1.414214   -2.463317
     62          6           0       -2.101595    1.414214   -3.671276
     63          1           0       -5.320535    1.414214   -2.463929
     64          1           0       -0.336320    1.414214   -2.463929
     65          6           0       -4.237160    1.414214   -4.933593
     66          6           0       -3.544474    1.414214   -6.106357
     67          6           0       -1.419694    1.414214   -4.933593
     68          6           0       -2.112380    1.414214   -6.106357
     69          1           0       -5.322189    1.414214   -4.933260
     70          1           0       -4.073722    1.414214   -7.052528
     71          1           0       -1.583132    1.414214   -7.052528
     72          1           0       -0.334665    1.414214   -4.933260
 ---------------------------------------------------------------------
 Rotational constants (GHZ):           0.0798877           0.0563744           0.0347892
 Leave Link  202 at Wed Sep 27 16:37:40 2023, MaxMem=  3221225472 cpu:               0.6 elap:               0.0
 (Enter /home/center/opt/aarch64/apps/gaussian16/c01/g16/l122.exe)
 Counterpoise: doing full-system calculation.
 Leave Link  122 at Wed Sep 27 16:37:42 2023, MaxMem=  3221225472 cpu:               0.4 elap:               0.0
 (Enter /home/center/opt/aarch64/apps/gaussian16/c01/g16/l301.exe)
 Standard basis: 6-311G(d,p) (5D, 7F)
 Ernie: Thresh=  0.10000D-02 Tol=  0.10000D-05 Strict=F.
 There are   528 symmetry adapted cartesian basis functions of A'  symmetry.
 There are   476 symmetry adapted cartesian basis functions of A"  symmetry.
 There are   504 symmetry adapted basis functions of A'  symmetry.
 There are   456 symmetry adapted basis functions of A"  symmetry.
   960 basis functions,  1632 primitive gaussians,  1004 cartesian basis functions
   146 alpha electrons      146 beta electrons
       nuclear repulsion energy      4438.3344796687 Hartrees.
 IExCor=  402 DFT=T Ex+Corr=B3LYP ExCW=0 ScaHFX=  0.200000
 ScaDFX=  0.800000  0.720000  1.000000  0.810000 ScalE2=  1.000000  1.000000
 IRadAn=      5 IRanWt=     -1 IRanGd=            0 ICorTp=0 IEmpDi=131
 NAtoms=   72 NActive=   72 NUniq=   40 SFac= 3.24D+00 NAtFMM=   60 NAOKFM=T Big=F
 Integral buffers will be    131072 words long.
 Raffenetti 2 integral format.
 Two-electron integral symmetry is turned on.
 R6Disp:  Grimme-D3 Dispersion energy=       -0.0686080725 Hartrees.
 Nuclear repulsion after empirical dispersion term =     4438.2658715962 Hartrees.
 Leave Link  301 at Wed Sep 27 16:37:44 2023, MaxMem=  3221225472 cpu:               4.4 elap:               0.2
 (Enter /home/center/opt/aarch64/apps/gaussian16/c01/g16/l302.exe)
 NPDir=0 NMtPBC=     1 NCelOv=     1 NCel=       1 NClECP=     1 NCelD=      1
         NCelK=      1 NCelE2=     1 NClLst=     1 CellRange=     0.0.
 One-electron integrals computed using PRISM.
 One-electron integral symmetry used in STVInt
 NBasis=   960 RedAO= T EigKep=  4.04D-05  NBF=   504   456
 NBsUse=   960 1.00D-06 EigRej= -1.00D+00 NBFU=   504   456
 Precomputing XC quadrature grid using
 IXCGrd= 4 IRadAn=           5 IRanWt=          -1 IRanGd=           0 AccXCQ= 0.00D+00.
 Generated NRdTot=       0 NPtTot=           0 NUsed=           0 NTot=          32
 NSgBfM=   981   981   981   981   981 MxSgAt=    72 MxSgA2=    72.
 Leave Link  302 at Wed Sep 27 16:37:49 2023, MaxMem=  3221225472 cpu:              63.4 elap:               1.9
 (Enter /home/center/opt/aarch64/apps/gaussian16/c01/g16/l303.exe)
 DipDrv:  MaxL=1.
 Leave Link  303 at Wed Sep 27 16:37:51 2023, MaxMem=  3221225472 cpu:              14.0 elap:               0.4
 (Enter /home/center/opt/aarch64/apps/gaussian16/c01/g16/l401.exe)
 ExpMin= 1.03D-01 ExpMax= 4.56D+03 ExpMxC= 6.82D+02 IAcc=3 IRadAn=         5 AccDes= 0.00D+00
 Harris functional with IExCor=  402 and IRadAn=       5 diagonalized for initial guess.
 HarFok:  IExCor=  402 AccDes= 0.00D+00 IRadAn=         5 IDoV= 1 UseB2=F ITyADJ=14
 ICtDFT=  3500011 ScaDFX=  1.000000  1.000000  1.000000  1.000000
 FoFCou: FMM=F IPFlag=           0 FMFlag=      100000 FMFlg1=        2000
         NFxFlg=           0 DoJE=T BraDBF=F KetDBF=T FulRan=T
         wScrn=  0.000000 ICntrl=       500 IOpCl=  0 I1Cent=   200000004 NGrid=           0
         NMat0=    1 NMatS0=      1 NMatT0=    0 NMatD0=    1 NMtDS0=    0 NMtDT0=    0
 Petite list used in FoFCou.
 Harris En= -1694.13373751100    
 JPrj=0 DoOrth=F DoCkMO=F.
 Initial guess orbital symmetries:
       Occupied  (A") (A') (A") (A') (A') (A") (A') (A") (A") (A')
                 (A") (A') (A") (A') (A") (A') (A") (A') (A') (A")
                 (A") (A') (A") (A') (A') (A') (A') (A') (A") (A")
                 (A') (A') (A") (A") (A') (A') (A") (A') (A") (A')
                 (A') (A") (A') (A") (A') (A') (A") (A") (A') (A')
                 (A") (A") (A') (A') (A') (A') (A") (A") (A') (A')
                 (A") (A") (A") (A") (A') (A') (A') (A') (A") (A")
                 (A") (A") (A') (A') (A") (A") (A') (A') (A') (A')
                 (A') (A') (A") (A") (A") (A") (A") (A") (A') (A')
                 (A') (A') (A") (A") (A') (A') (A') (A') (A") (A")
                 (A') (A') (A") (A") (A") (A") (A') (A') (A') (A')
                 (A") (A") (A') (A') (A") (A") (A') (A') (A") (A")
                 (A") (A") (A') (A') (A') (A') (A") (A") (A') (A')
                 (A") (A") (A') (A') (A") (A") (A') (A') (A') (A')
                 (A") (A") (A") (A") (A') (A')
       Virtual   (A') (A') (A") (A") (A") (A") (A') (A') (A') (A')
                 (A") (A") (A') (A') (A") (A") (A') (A") (A') (A')
                 (A') (A') (A") (A") (A') (A') (A") (A") (A') (A')
                 (A") (A') (A") (A") (A') (A") (A") (A') (A') (A')
                 (A") (A') (A") (A') (A") (A') (A') (A") (A') (A')
                 (A") (A') (A') (A") (A') (A') (A') (A") (A") (A")
                 (A') (A") (A") (A") (A') (A') (A") (A") (A') (A")
                 (A') (A") (A') (A') (A") (A') (A") (A") (A') (A")
                 (A') (A') (A') (A") (A') (A') (A") (A') (A") (A")
                 (A') (A') (A") (A') (A") (A') (A') (A") (A") (A")
                 (A") (A") (A') (A') (A") (A') (A') (A") (A') (A')
                 (A') (A") (A') (A') (A') (A") (A") (A') (A') (A")
                 (A') (A') (A") (A') (A") (A") (A") (A") (A') (A')
                 (A") (A") (A") (A") (A') (A') (A") (A') (A") (A')
                 (A") (A') (A') (A") (A') (A') (A') (A') (A") (A')
                 (A') (A') (A') (A") (A") (A") (A') (A') (A") (A")
                 (A') (A") (A') (A") (A") (A') (A") (A') (A") (A')
                 (A") (A') (A") (A') (A") (A') (A') (A") (A') (A")
                 (A") (A') (A') (A') (A") (A") (A') (A') (A') (A')
                 (A") (A') (A") (A') (A") (A") (A') (A') (A") (A")
                 (A") (A') (A') (A") (A') (A') (A") (A") (A') (A')
                 (A") (A') (A') (A") (A") (A') (A') (A") (A") (A')
                 (A") (A") (A') (A") (A") (A") (A') (A') (A') (A')
                 (A") (A') (A") (A') (A') (A') (A") (A") (A') (A")
                 (A") (A") (A') (A') (A") (A') (A") (A') (A') (A')
                 (A") (A') (A") (A") (A') (A") (A') (A") (A") (A')
                 (A") (A') (A') (A') (A") (A") (A") (A') (A') (A')
                 (A") (A") (A') (A") (A") (A") (A') (A') (A") (A')
                 (A') (A") (A") (A') (A') (A') (A') (A") (A") (A')
                 (A") (A") (A') (A') (A') (A") (A") (A") (A') (A")
                 (A") (A") (A") (A') (A") (A') (A') (A') (A') (A')
                 (A') (A") (A") (A') (A") (A") (A") (A") (A') (A')
                 (A') (A') (A") (A') (A') (A') (A") (A') (A") (A")
                 (A") (A") (A') (A") (A') (A") (A') (A') (A') (A")
                 (A') (A") (A') (A") (A") (A') (A') (A") (A") (A')
                 (A') (A') (A") (A") (A') (A') (A") (A') (A') (A")
                 (A') (A') (A') (A') (A") (A") (A") (A") (A") (A")
                 (A") (A") (A") (A') (A') (A") (A') (A') (A') (A')
                 (A") (A') (A") (A') (A') (A') (A') (A') (A") (A")
                 (A') (A') (A") (A") (A') (A') (A") (A") (A") (A")
                 (A') (A') (A") (A') (A") (A') (A') (A") (A") (A')
                 (A') (A') (A") (A") (A') (A') (A") (A') (A") (A')
                 (A') (A') (A') (A') (A") (A") (A') (A") (A') (A")
                 (A") (A") (A") (A') (A") (A') (A") (A') (A') (A")
                 (A") (A") (A') (A") (A') (A") (A') (A") (A') (A")
                 (A') (A') (A') (A') (A") (A") (A') (A') (A") (A")
                 (A") (A') (A') (A') (A") (A') (A") (A") (A") (A')
                 (A") (A") (A') (A') (A") (A") (A") (A') (A') (A')
                 (A") (A') (A') (A') (A") (A') (A") (A") (A") (A')
                 (A") (A') (A") (A") (A") (A") (A") (A") (A') (A')
                 (A') (A') (A") (A") (A') (A') (A') (A') (A") (A')
                 (A") (A') (A') (A') (A") (A") (A") (A") (A') (A')
                 (A") (A") (A') (A') (A") (A") (A') (A') (A') (A")
                 (A") (A') (A') (A') (A") (A") (A') (A') (A") (A")
                 (A") (A") (A') (A') (A') (A') (A") (A") (A") (A")
                 (A") (A") (A') (A') (A") (A") (A') (A') (A') (A')
                 (A') (A") (A') (A") (A') (A") (A") (A') (A') (A')
                 (A") (A") (A") (A") (A') (A") (A') (A') (A") (A')
                 (A') (A') (A') (A') (A") (A") (A") (A') (A') (A')
                 (A') (A") (A') (A") (A') (A') (A") (A') (A") (A")
                 (A") (A') (A") (A') (A') (A') (A") (A") (A") (A")
                 (A') (A') (A") (A') (A") (A') (A') (A') (A") (A")
                 (A') (A") (A") (A") (A') (A') (A') (A") (A') (A")
                 (A') (A') (A") (A') (A") (A') (A') (A') (A') (A")
                 (A") (A") (A") (A") (A') (A") (A") (A') (A") (A')
                 (A') (A') (A') (A") (A') (A') (A') (A") (A') (A")
                 (A') (A") (A") (A') (A") (A") (A') (A') (A') (A")
                 (A') (A") (A') (A") (A') (A") (A") (A") (A') (A')
                 (A") (A") (A') (A') (A') (A") (A') (A") (A") (A")
                 (A') (A') (A') (A") (A') (A") (A') (A') (A") (A")
                 (A') (A') (A") (A") (A') (A') (A") (A") (A') (A")
                 (A') (A") (A") (A") (A') (A') (A') (A') (A") (A")
                 (A') (A') (A") (A") (A') (A') (A') (A') (A") (A")
                 (A') (A") (A') (A") (A") (A') (A") (A') (A') (A')
                 (A") (A") (A') (A') (A") (A") (A') (A') (A') (A')
                 (A") (A") (A') (A') (A") (A") (A') (A') (A") (A")
                 (A") (A") (A') (A') (A") (A") (A') (A") (A') (A")
                 (A') (A') (A") (A") (A') (A') (A') (A') (A") (A")
                 (A") (A") (A') (A') (A") (A") (A') (A') (A') (A')
                 (A") (A") (A") (A") (A') (A') (A') (A') (A") (A")
                 (A') (A') (A") (A") (A') (A') (A") (A") (A') (A')
                 (A') (A") (A') (A")
 The electronic state of the initial guess is 1-A'.
 Leave Link  401 at Wed Sep 27 16:37:57 2023, MaxMem=  3221225472 cpu:             103.8 elap:               2.6
 (Enter /home/center/opt/aarch64/apps/gaussian16/c01/g16/l502.exe)
 Integral symmetry usage will be decided dynamically.
 Closed shell SCF:
 Using DIIS extrapolation, IDIIS=  1040.
 NGot=  3221225472 LenX=  3219153746 LenY=  3218144726
 Requested convergence on RMS density matrix=1.00D-08 within 128 cycles.
 Requested convergence on MAX density matrix=1.00D-06.
 Requested convergence on             energy=1.00D-06.
 No special actions if energy rises.
 Fock matrices will be formed incrementally for  20 cycles.
 Integral accuracy reduced to 1.0D-05 until final iterations.

 Cycle   1  Pass 0  IDiag  1:
 FoFJK:  IHMeth= 1 ICntrl=       0 DoSepK=F KAlg= 0 I1Cent=           0 FoldK=F
 IRaf= 520000000 NMat=       1 IRICut=       1 DoRegI=T DoRafI=F ISym2E= 1 IDoP0=0 IntGTp=1.
 FoFCou: FMM=F IPFlag=           0 FMFlag=      100000 FMFlg1=        2000
         NFxFlg=           0 DoJE=F BraDBF=F KetDBF=F FulRan=T
         wScrn=  0.000000 ICntrl=         0 IOpCl=  0 I1Cent=           0 NGrid=           0
         NMat0=    1 NMatS0=      1 NMatT0=    0 NMatD0=    1 NMtDS0=    0 NMtDT0=    0
 Petite list used in FoFCou.
 E= -1693.14890267533    
 DIIS: error= 4.55D-02 at cycle   1 NSaved=   1.
 NSaved= 1 IEnMin= 1 EnMin= -1693.14890267533     IErMin= 1 ErrMin= 4.55D-02
 ErrMax= 4.55D-02  0.00D+00 EMaxC= 1.00D-01 BMatC= 9.08D-01 BMatP= 9.08D-01
 IDIUse=3 WtCom= 5.45D-01 WtEn= 4.55D-01
 Coeff-Com:  0.100D+01
 Coeff-En:   0.100D+01
 Coeff:      0.100D+01
 Gap=     0.078 Goal=   None    Shift=    0.000
 GapD=    0.078 DampG=0.500 DampE=0.500 DampFc=0.2500 IDamp=-1.
 Damping current iteration by 2.50D-01
 RMSDP=1.78D-03 MaxDP=8.42D-02              OVMax= 1.62D-01

 Cycle   2  Pass 0  IDiag  1:
 RMSU=  4.31D-04    CP:  9.82D-01
 E= -1693.46274457125     Delta-E=       -0.313841895924 Rises=F Damp=T
 DIIS: error= 2.63D-02 at cycle   2 NSaved=   2.
 NSaved= 2 IEnMin= 2 EnMin= -1693.46274457125     IErMin= 2 ErrMin= 2.63D-02
 ErrMax= 2.63D-02  0.00D+00 EMaxC= 1.00D-01 BMatC= 2.99D-01 BMatP= 9.08D-01
 IDIUse=3 WtCom= 7.37D-01 WtEn= 2.63D-01
 Coeff-Com: -0.119D+01 0.219D+01
 Coeff-En:   0.000D+00 0.100D+01
 Coeff:     -0.878D+00 0.188D+01
 Gap=     0.072 Goal=   None    Shift=    0.000
 RMSDP=6.70D-04 MaxDP=3.32D-02 DE=-3.14D-01 OVMax= 8.37D-02

 Cycle   3  Pass 0  IDiag  1:
 RMSU=  4.47D-04    CP:  9.57D-01  2.10D+00
 E= -1694.03577507202     Delta-E=       -0.573030500776 Rises=F Damp=F
 DIIS: error= 5.45D-03 at cycle   3 NSaved=   3.
 NSaved= 3 IEnMin= 3 EnMin= -1694.03577507202     IErMin= 3 ErrMin= 5.45D-03
 ErrMax= 5.45D-03  0.00D+00 EMaxC= 1.00D-01 BMatC= 1.17D-02 BMatP= 2.99D-01
 IDIUse=3 WtCom= 9.46D-01 WtEn= 5.45D-02
 Coeff-Com: -0.245D+00 0.509D+00 0.736D+00
 Coeff-En:   0.000D+00 0.000D+00 0.100D+01
 Coeff:     -0.232D+00 0.481D+00 0.751D+00
 Gap=     0.075 Goal=   None    Shift=    0.000
 RMSDP=2.25D-04 MaxDP=1.28D-02 DE=-5.73D-01 OVMax= 8.60D-02

 Cycle   4  Pass 0  IDiag  1:
 RMSU=  1.84D-04    CP:  9.58D-01  2.04D+00  7.16D-01
 E= -1694.03262118560     Delta-E=        0.003153886430 Rises=F Damp=F
 DIIS: error= 7.86D-03 at cycle   4 NSaved=   4.
 NSaved= 4 IEnMin= 3 EnMin= -1694.03577507202     IErMin= 3 ErrMin= 5.45D-03
 ErrMax= 7.86D-03  0.00D+00 EMaxC= 1.00D-01 BMatC= 1.27D-02 BMatP= 1.17D-02
 IDIUse=3 WtCom= 9.21D-01 WtEn= 7.86D-02
 Coeff-Com: -0.407D-01 0.111D+00 0.516D+00 0.414D+00
 Coeff-En:   0.000D+00 0.000D+00 0.550D+00 0.450D+00
 Coeff:     -0.375D-01 0.102D+00 0.519D+00 0.417D+00
 Gap=     0.073 Goal=   None    Shift=    0.000
 RMSDP=1.40D-04 MaxDP=9.67D-03 DE= 3.15D-03 OVMax= 7.85D-02

 Cycle   5  Pass 0  IDiag  1:
 RMSU=  7.48D-05    CP:  9.58D-01  2.05D+00  7.89D-01  3.82D-01
 E= -1694.04651298917     Delta-E=       -0.013891803575 Rises=F Damp=F
 DIIS: error= 2.07D-03 at cycle   5 NSaved=   5.
 NSaved= 5 IEnMin= 5 EnMin= -1694.04651298917     IErMin= 5 ErrMin= 2.07D-03
 ErrMax= 2.07D-03  0.00D+00 EMaxC= 1.00D-01 BMatC= 9.98D-04 BMatP= 1.17D-02
 IDIUse=3 WtCom= 9.79D-01 WtEn= 2.07D-02
 Coeff-Com: -0.339D-02 0.193D-01 0.230D+00 0.261D+00 0.493D+00
 Coeff-En:   0.000D+00 0.000D+00 0.000D+00 0.632D-01 0.937D+00
 Coeff:     -0.332D-02 0.189D-01 0.225D+00 0.257D+00 0.502D+00
 Gap=     0.073 Goal=   None    Shift=    0.000
 RMSDP=4.93D-05 MaxDP=3.85D-03 DE=-1.39D-02 OVMax= 3.51D-02

 Cycle   6  Pass 0  IDiag  1:
 RMSU=  2.56D-05    CP:  9.58D-01  2.05D+00  7.95D-01  5.16D-01  5.44D-01
 E= -1694.04743700312     Delta-E=       -0.000924013947 Rises=F Damp=F
 DIIS: error= 1.31D-03 at cycle   6 NSaved=   6.
 NSaved= 6 IEnMin= 6 EnMin= -1694.04743700312     IErMin= 6 ErrMin= 1.31D-03
 ErrMax= 1.31D-03  0.00D+00 EMaxC= 1.00D-01 BMatC= 2.77D-04 BMatP= 9.98D-04
 IDIUse=3 WtCom= 9.87D-01 WtEn= 1.31D-02
 Coeff-Com:  0.520D-02-0.583D-02 0.834D-01 0.123D+00 0.371D+00 0.424D+00
 Coeff-En:   0.000D+00 0.000D+00 0.000D+00 0.000D+00 0.242D+00 0.758D+00
 Coeff:      0.513D-02-0.575D-02 0.823D-01 0.121D+00 0.369D+00 0.428D+00
 Gap=     0.073 Goal=   None    Shift=    0.000
 RMSDP=2.11D-05 MaxDP=1.69D-03 DE=-9.24D-04 OVMax= 1.51D-02

 Cycle   7  Pass 0  IDiag  1:
 RMSU=  8.16D-06    CP:  9.58D-01  2.05D+00  7.99D-01  4.97D-01  6.46D-01
                    CP:  3.17D-01
 E= -1694.04773763911     Delta-E=       -0.000300635996 Rises=F Damp=F
 DIIS: error= 3.58D-04 at cycle   7 NSaved=   7.
 NSaved= 7 IEnMin= 7 EnMin= -1694.04773763911     IErMin= 7 ErrMin= 3.58D-04
 ErrMax= 3.58D-04  0.00D+00 EMaxC= 1.00D-01 BMatC= 2.67D-05 BMatP= 2.77D-04
 IDIUse=3 WtCom= 9.96D-01 WtEn= 3.58D-03
 Coeff-Com:  0.464D-02-0.656D-02 0.433D-01 0.673D-01 0.225D+00 0.303D+00
 Coeff-Com:  0.364D+00
 Coeff-En:   0.000D+00 0.000D+00 0.000D+00 0.000D+00 0.000D+00 0.656D-01
 Coeff-En:   0.934D+00
 Coeff:      0.463D-02-0.654D-02 0.431D-01 0.670D-01 0.224D+00 0.302D+00
 Coeff:      0.366D+00
 Gap=     0.073 Goal=   None    Shift=    0.000
 RMSDP=6.23D-06 MaxDP=3.29D-04 DE=-3.01D-04 OVMax= 2.93D-03

 Initial convergence to 1.0D-05 achieved.  Increase integral accuracy.
 Cycle   8  Pass 1  IDiag  1:
 E= -1694.04750365758     Delta-E=        0.000233981531 Rises=F Damp=F
 DIIS: error= 4.51D-04 at cycle   1 NSaved=   1.
 NSaved= 1 IEnMin= 1 EnMin= -1694.04750365758     IErMin= 1 ErrMin= 4.51D-04
 ErrMax= 4.51D-04  0.00D+00 EMaxC= 1.00D-01 BMatC= 3.27D-05 BMatP= 3.27D-05
 IDIUse=3 WtCom= 9.95D-01 WtEn= 4.51D-03
 Coeff-Com:  0.100D+01
 Coeff-En:   0.100D+01
 Coeff:      0.100D+01
 Gap=     0.073 Goal=   None    Shift=    0.000
 RMSDP=6.23D-06 MaxDP=3.29D-04 DE= 2.34D-04 OVMax= 2.40D-03

 Cycle   9  Pass 1  IDiag  1:
 RMSU=  2.48D-04    CP:  9.99D-01
 E= -1694.04753034882     Delta-E=       -0.000026691235 Rises=F Damp=F
 DIIS: error= 1.84D-04 at cycle   2 NSaved=   2.
 NSaved= 2 IEnMin= 2 EnMin= -1694.04753034882     IErMin= 2 ErrMin= 1.84D-04
 ErrMax= 1.84D-04  0.00D+00 EMaxC= 1.00D-01 BMatC= 4.76D-06 BMatP= 3.27D-05
 IDIUse=3 WtCom= 9.98D-01 WtEn= 1.84D-03
 Coeff-Com:  0.156D+00 0.844D+00
 Coeff-En:   0.000D+00 0.100D+01
 Coeff:      0.155D+00 0.845D+00
 Gap=     0.073 Goal=   None    Shift=    0.000
 RMSDP=7.82D-06 MaxDP=6.35D-04 DE=-2.67D-05 OVMax= 5.70D-03

 Cycle  10  Pass 1  IDiag  1:
 RMSU=  7.63D-06    CP:  9.99D-01  1.01D+00
 E= -1694.04750715146     Delta-E=        0.000023197361 Rises=F Damp=F
 DIIS: error= 4.37D-04 at cycle   3 NSaved=   3.
 NSaved= 3 IEnMin= 2 EnMin= -1694.04753034882     IErMin= 2 ErrMin= 1.84D-04
 ErrMax= 4.37D-04  0.00D+00 EMaxC= 1.00D-01 BMatC= 2.29D-05 BMatP= 4.76D-06
 IDIUse=3 WtCom= 3.24D-01 WtEn= 6.76D-01
 Coeff-Com:  0.253D-03 0.689D+00 0.311D+00
 Coeff-En:   0.000D+00 0.759D+00 0.241D+00
 Coeff:      0.820D-04 0.736D+00 0.264D+00
 Gap=     0.073 Goal=   None    Shift=    0.000
 RMSDP=4.45D-06 MaxDP=3.51D-04 DE= 2.32D-05 OVMax= 3.36D-03

 Cycle  11  Pass 1  IDiag  1:
 RMSU=  8.47D-07    CP:  9.99D-01  1.01D+00  4.32D-01
 E= -1694.04753524713     Delta-E=       -0.000028095676 Rises=F Damp=F
 DIIS: error= 6.08D-05 at cycle   4 NSaved=   4.
 NSaved= 4 IEnMin= 4 EnMin= -1694.04753524713     IErMin= 4 ErrMin= 6.08D-05
 ErrMax= 6.08D-05  0.00D+00 EMaxC= 1.00D-01 BMatC= 8.44D-07 BMatP= 4.76D-06
 IDIUse=1 WtCom= 1.00D+00 WtEn= 0.00D+00
 Coeff-Com: -0.352D-02 0.445D+00 0.127D+00 0.432D+00
 Coeff:     -0.352D-02 0.445D+00 0.127D+00 0.432D+00
 Gap=     0.073 Goal=   None    Shift=    0.000
 RMSDP=9.75D-07 MaxDP=8.07D-05 DE=-2.81D-05 OVMax= 6.37D-04

 Cycle  12  Pass 1  IDiag  1:
 RMSU=  3.17D-07    CP:  9.99D-01  1.01D+00  3.18D-01  6.68D-01
 E= -1694.04753621392     Delta-E=       -0.000000966783 Rises=F Damp=F
 DIIS: error= 4.91D-06 at cycle   5 NSaved=   5.
 NSaved= 5 IEnMin= 5 EnMin= -1694.04753621392     IErMin= 5 ErrMin= 4.91D-06
 ErrMax= 4.91D-06  0.00D+00 EMaxC= 1.00D-01 BMatC= 5.92D-09 BMatP= 8.44D-07
 IDIUse=1 WtCom= 1.00D+00 WtEn= 0.00D+00
 Coeff-Com: -0.227D-02 0.271D+00 0.747D-01 0.277D+00 0.379D+00
 Coeff:     -0.227D-02 0.271D+00 0.747D-01 0.277D+00 0.379D+00
 Gap=     0.073 Goal=   None    Shift=    0.000
 RMSDP=1.11D-07 MaxDP=9.30D-06 DE=-9.67D-07 OVMax= 7.58D-05

 Cycle  13  Pass 1  IDiag  1:
 RMSU=  9.88D-08    CP:  9.99D-01  1.01D+00  3.17D-01  6.91D-01  8.50D-01
 E= -1694.04753622050     Delta-E=       -0.000000006586 Rises=F Damp=F
 DIIS: error= 2.05D-06 at cycle   6 NSaved=   6.
 NSaved= 6 IEnMin= 6 EnMin= -1694.04753622050     IErMin= 6 ErrMin= 2.05D-06
 ErrMax= 2.05D-06  0.00D+00 EMaxC= 1.00D-01 BMatC= 7.76D-10 BMatP= 5.92D-09
 IDIUse=1 WtCom= 1.00D+00 WtEn= 0.00D+00
 Coeff-Com: -0.941D-03 0.108D+00 0.292D-01 0.115D+00 0.266D+00 0.483D+00
 Coeff:     -0.941D-03 0.108D+00 0.292D-01 0.115D+00 0.266D+00 0.483D+00
 Gap=     0.073 Goal=   None    Shift=    0.000
 RMSDP=3.54D-08 MaxDP=2.45D-06 DE=-6.59D-09 OVMax= 2.38D-05

 Cycle  14  Pass 1  IDiag  1:
 RMSU=  2.51D-08    CP:  9.99D-01  1.01D+00  3.17D-01  6.85D-01  8.89D-01
                    CP:  7.89D-01
 E= -1694.04753622136     Delta-E=       -0.000000000864 Rises=F Damp=F
 DIIS: error= 3.68D-07 at cycle   7 NSaved=   7.
 NSaved= 7 IEnMin= 7 EnMin= -1694.04753622136     IErMin= 7 ErrMin= 3.68D-07
 ErrMax= 3.68D-07  0.00D+00 EMaxC= 1.00D-01 BMatC= 4.47D-11 BMatP= 7.76D-10
 IDIUse=1 WtCom= 1.00D+00 WtEn= 0.00D+00
 Coeff-Com: -0.415D-03 0.469D-01 0.126D-01 0.500D-01 0.129D+00 0.279D+00
 Coeff-Com:  0.483D+00
 Coeff:     -0.415D-03 0.469D-01 0.126D-01 0.500D-01 0.129D+00 0.279D+00
 Coeff:      0.483D+00
 Gap=     0.073 Goal=   None    Shift=    0.000
 RMSDP=9.94D-09 MaxDP=4.38D-07 DE=-8.64D-10 OVMax= 4.54D-06

 SCF Done:  E(RB3LYP) =  -1694.04753622     A.U. after   14 cycles
            NFock= 14  Conv=0.99D-08     -V/T= 2.0044
 KE= 1.686669142531D+03 PE=-1.280681977182D+04 EE= 4.987837221469D+03
 Leave Link  502 at Wed Sep 27 16:39:28 2023, MaxMem=  3221225472 cpu:            3137.2 elap:              89.1
 (Enter /home/center/opt/aarch64/apps/gaussian16/c01/g16/l601.exe)
 Copying SCF densities to generalized density rwf, IOpCl= 0 IROHF=0.

 **********************************************************************

            Population analysis using the SCF Density.

 **********************************************************************

 Orbital symmetries:
       Occupied  (A") (A') (A') (A") (A") (A') (A") (A') (A") (A')
                 (A') (A") (A") (A') (A') (A") (A') (A') (A") (A')
                 (A") (A') (A") (A') (A") (A') (A") (A') (A") (A')
                 (A') (A") (A') (A') (A") (A') (A") (A') (A") (A')
                 (A") (A') (A") (A') (A') (A') (A") (A") (A') (A')
                 (A") (A") (A') (A') (A') (A") (A') (A") (A') (A')
                 (A") (A") (A") (A") (A') (A') (A') (A') (A") (A")
                 (A") (A") (A') (A') (A") (A') (A") (A') (A') (A')
                 (A') (A") (A") (A') (A") (A") (A') (A') (A") (A")
                 (A') (A') (A') (A") (A") (A') (A") (A") (A') (A')
                 (A') (A") (A') (A') (A") (A') (A') (A') (A') (A")
                 (A') (A") (A") (A") (A") (A") (A") (A") (A') (A')
                 (A') (A') (A') (A') (A") (A") (A") (A') (A") (A")
                 (A') (A") (A') (A') (A") (A") (A') (A') (A') (A')
                 (A") (A") (A") (A") (A') (A')
       Virtual   (A') (A') (A") (A") (A") (A") (A') (A') (A") (A')
                 (A') (A') (A") (A') (A") (A') (A') (A') (A") (A")
                 (A') (A') (A") (A') (A") (A") (A') (A") (A') (A")
                 (A") (A') (A") (A') (A') (A") (A") (A') (A") (A')
                 (A') (A') (A') (A") (A') (A") (A") (A") (A") (A')
                 (A') (A') (A') (A') (A') (A') (A') (A") (A') (A")
                 (A") (A") (A") (A") (A') (A') (A") (A") (A') (A')
                 (A") (A') (A") (A') (A") (A') (A") (A") (A') (A")
                 (A') (A') (A') (A') (A') (A") (A") (A') (A') (A")
                 (A') (A') (A") (A') (A") (A") (A') (A") (A") (A')
                 (A") (A') (A") (A') (A") (A') (A') (A') (A") (A")
                 (A") (A") (A') (A") (A') (A") (A') (A") (A') (A")
                 (A') (A') (A') (A") (A') (A') (A') (A') (A") (A')
                 (A') (A') (A") (A") (A') (A') (A") (A") (A') (A")
                 (A") (A') (A') (A') (A") (A') (A') (A") (A') (A")
                 (A') (A") (A") (A") (A") (A") (A') (A') (A') (A")
                 (A') (A") (A') (A') (A") (A') (A") (A") (A') (A")
                 (A') (A") (A") (A') (A') (A') (A') (A') (A') (A")
                 (A') (A") (A') (A") (A") (A") (A') (A") (A") (A')
                 (A") (A") (A') (A") (A') (A') (A") (A") (A') (A')
                 (A') (A") (A') (A") (A') (A") (A') (A") (A') (A')
                 (A") (A') (A") (A') (A') (A") (A') (A") (A') (A")
                 (A') (A") (A") (A') (A") (A") (A') (A") (A") (A')
                 (A') (A') (A") (A') (A") (A') (A') (A") (A") (A')
                 (A") (A") (A') (A') (A") (A') (A') (A") (A') (A')
                 (A") (A") (A') (A") (A") (A') (A') (A") (A') (A")
                 (A") (A") (A') (A') (A') (A') (A") (A') (A') (A")
                 (A') (A") (A") (A") (A') (A") (A') (A") (A") (A')
                 (A') (A') (A") (A') (A") (A") (A') (A") (A') (A")
                 (A') (A') (A') (A") (A") (A") (A') (A") (A') (A')
                 (A") (A") (A") (A') (A") (A') (A") (A') (A') (A')
                 (A') (A") (A') (A') (A") (A") (A') (A") (A") (A")
                 (A') (A') (A") (A') (A') (A") (A') (A') (A") (A")
                 (A") (A") (A') (A") (A") (A') (A') (A') (A") (A')
                 (A") (A') (A') (A') (A") (A") (A') (A') (A') (A")
                 (A') (A") (A") (A") (A') (A') (A') (A') (A') (A')
                 (A") (A") (A') (A') (A") (A") (A") (A") (A") (A")
                 (A') (A") (A") (A') (A") (A') (A") (A') (A') (A')
                 (A") (A") (A') (A') (A") (A') (A') (A") (A') (A')
                 (A') (A') (A") (A") (A') (A') (A") (A") (A') (A")
                 (A') (A") (A") (A') (A") (A') (A') (A') (A") (A")
                 (A') (A') (A") (A') (A') (A") (A") (A") (A') (A')
                 (A') (A") (A') (A') (A') (A") (A') (A') (A") (A")
                 (A") (A") (A") (A') (A") (A') (A') (A") (A') (A")
                 (A') (A") (A") (A') (A") (A") (A') (A") (A') (A")
                 (A') (A') (A") (A') (A") (A') (A') (A") (A") (A')
                 (A") (A") (A') (A') (A') (A") (A') (A") (A') (A')
                 (A") (A") (A") (A') (A") (A') (A') (A") (A") (A')
                 (A") (A") (A') (A') (A') (A') (A") (A") (A') (A")
                 (A") (A") (A') (A") (A") (A") (A") (A") (A') (A')
                 (A") (A') (A') (A') (A") (A') (A') (A') (A") (A")
                 (A') (A') (A') (A') (A") (A") (A') (A') (A") (A")
                 (A") (A") (A') (A') (A") (A") (A') (A') (A') (A")
                 (A") (A') (A") (A") (A") (A') (A") (A') (A') (A')
                 (A") (A") (A') (A') (A") (A') (A") (A') (A") (A")
                 (A") (A') (A") (A') (A") (A') (A") (A') (A') (A')
                 (A") (A') (A") (A') (A') (A") (A") (A') (A") (A")
                 (A') (A') (A') (A') (A') (A") (A') (A") (A') (A')
                 (A") (A") (A') (A") (A") (A') (A') (A") (A") (A')
                 (A") (A') (A") (A") (A') (A") (A') (A") (A') (A')
                 (A") (A') (A') (A") (A') (A") (A') (A') (A') (A")
                 (A') (A") (A') (A") (A') (A') (A") (A') (A') (A")
                 (A') (A") (A") (A') (A") (A') (A") (A') (A") (A")
                 (A') (A") (A') (A") (A') (A') (A") (A') (A') (A")
                 (A') (A') (A") (A") (A") (A") (A') (A") (A') (A')
                 (A") (A') (A') (A") (A') (A') (A') (A") (A') (A")
                 (A") (A") (A') (A') (A") (A") (A') (A') (A') (A")
                 (A') (A") (A') (A") (A") (A') (A") (A") (A') (A')
                 (A') (A') (A") (A") (A') (A") (A') (A") (A") (A")
                 (A') (A') (A") (A') (A') (A') (A") (A') (A") (A")
                 (A') (A') (A") (A") (A') (A") (A') (A") (A') (A")
                 (A') (A") (A") (A") (A') (A') (A') (A') (A") (A")
                 (A') (A') (A") (A') (A") (A') (A') (A') (A") (A")
                 (A") (A') (A") (A') (A") (A') (A") (A') (A') (A")
                 (A') (A") (A') (A") (A') (A') (A") (A') (A') (A')
                 (A") (A') (A") (A') (A") (A") (A') (A') (A") (A")
                 (A") (A') (A") (A") (A') (A") (A') (A") (A') (A")
                 (A') (A') (A") (A") (A') (A') (A') (A') (A") (A")
                 (A") (A") (A') (A') (A") (A') (A") (A') (A') (A')
                 (A") (A") (A") (A") (A') (A') (A') (A") (A') (A")
                 (A') (A') (A") (A') (A") (A') (A") (A') (A") (A')
                 (A') (A") (A') (A")
 The electronic state is 1-A'.
 Alpha  occ. eigenvalues --  -10.19279 -10.19278 -10.19208 -10.19207 -10.19195
 Alpha  occ. eigenvalues --  -10.19195 -10.19110 -10.19110 -10.18487 -10.18487
 Alpha  occ. eigenvalues --  -10.18439 -10.18438 -10.18423 -10.18423 -10.18367
 Alpha  occ. eigenvalues --  -10.18367 -10.18290 -10.18288 -10.18257 -10.18257
 Alpha  occ. eigenvalues --  -10.18239 -10.18239 -10.18216 -10.18216 -10.18151
 Alpha  occ. eigenvalues --  -10.18151 -10.18132 -10.18132 -10.18046 -10.18046
 Alpha  occ. eigenvalues --  -10.17505 -10.17496 -10.17496 -10.17489 -10.17485
 Alpha  occ. eigenvalues --  -10.17485 -10.17457 -10.17456 -10.17444 -10.17444
 Alpha  occ. eigenvalues --  -10.17421 -10.17421 -10.17368 -10.17368  -0.89660
 Alpha  occ. eigenvalues --   -0.88898  -0.88178  -0.87437  -0.85859  -0.85127
 Alpha  occ. eigenvalues --   -0.82723  -0.81996  -0.80147  -0.79372  -0.78829
 Alpha  occ. eigenvalues --   -0.78634  -0.78103  -0.77881  -0.76307  -0.75563
 Alpha  occ. eigenvalues --   -0.74563  -0.73833  -0.73216  -0.72476  -0.69514
 Alpha  occ. eigenvalues --   -0.68766  -0.67654  -0.66922  -0.63043  -0.62676
 Alpha  occ. eigenvalues --   -0.62302  -0.61956  -0.61440  -0.60652  -0.60289
 Alpha  occ. eigenvalues --   -0.59616  -0.59520  -0.58870  -0.57998  -0.57272
 Alpha  occ. eigenvalues --   -0.53019  -0.52890  -0.52601  -0.52290  -0.52141
 Alpha  occ. eigenvalues --   -0.51879  -0.49972  -0.49222  -0.48816  -0.48106
 Alpha  occ. eigenvalues --   -0.47470  -0.46742  -0.46458  -0.45925  -0.45788
 Alpha  occ. eigenvalues --   -0.45641  -0.45138  -0.45053  -0.44234  -0.43520
 Alpha  occ. eigenvalues --   -0.43498  -0.42901  -0.42755  -0.42147  -0.42139
 Alpha  occ. eigenvalues --   -0.41883  -0.41693  -0.41352  -0.41140  -0.41010
 Alpha  occ. eigenvalues --   -0.40945  -0.40707  -0.40261  -0.40009  -0.39874
 Alpha  occ. eigenvalues --   -0.39153  -0.38507  -0.37767  -0.37036  -0.36639
 Alpha  occ. eigenvalues --   -0.36313  -0.35946  -0.35866  -0.35113  -0.34408
 Alpha  occ. eigenvalues --   -0.34130  -0.33671  -0.33395  -0.33376  -0.33225
 Alpha  occ. eigenvalues --   -0.32664  -0.32515  -0.31862  -0.31161  -0.29971
 Alpha  occ. eigenvalues --   -0.29229  -0.28700  -0.27996  -0.26938  -0.26193
 Alpha  occ. eigenvalues --   -0.24660  -0.23945  -0.22901  -0.22153  -0.18184
 Alpha  occ. eigenvalues --   -0.17414
 Alpha virt. eigenvalues --   -0.10080  -0.09317  -0.04796  -0.04039  -0.03059
 Alpha virt. eigenvalues --   -0.02326  -0.00557   0.00277   0.01662   0.01757
 Alpha virt. eigenvalues --    0.01948   0.02482   0.02793   0.03474   0.03650
 Alpha virt. eigenvalues --    0.03695   0.04210   0.05137   0.05321   0.05563
 Alpha virt. eigenvalues --    0.05744   0.06298   0.06989   0.07361   0.07692
 Alpha virt. eigenvalues --    0.07973   0.08709   0.08715   0.09092   0.09306
 Alpha virt. eigenvalues --    0.10246   0.10545   0.10650   0.10918   0.11261
 Alpha virt. eigenvalues --    0.11961   0.12552   0.13053   0.13203   0.13813
 Alpha virt. eigenvalues --    0.14464   0.14526   0.15582   0.15900   0.17540
 Alpha virt. eigenvalues --    0.18226   0.18364   0.18510   0.19442   0.19619
 Alpha virt. eigenvalues --    0.19815   0.19972   0.22463   0.22725   0.23382
 Alpha virt. eigenvalues --    0.23563   0.24207   0.24263   0.24951   0.25300
 Alpha virt. eigenvalues --    0.25727   0.25993   0.27197   0.27397   0.27717
 Alpha virt. eigenvalues --    0.27954   0.27963   0.28010   0.28618   0.28734
 Alpha virt. eigenvalues --    0.28766   0.29331   0.29566   0.29816   0.30097
 Alpha virt. eigenvalues --    0.30401   0.30816   0.31178   0.31232   0.31635
 Alpha virt. eigenvalues --    0.32535   0.34215   0.34317   0.34984   0.36091
 Alpha virt. eigenvalues --    0.36170   0.36725   0.36937   0.37153   0.37189
 Alpha virt. eigenvalues --    0.37329   0.37611   0.37697   0.37763   0.37899
 Alpha virt. eigenvalues --    0.38204   0.38440   0.38577   0.38888   0.38960
 Alpha virt. eigenvalues --    0.39318   0.39575   0.39668   0.39728   0.39910
 Alpha virt. eigenvalues --    0.40251   0.40332   0.40536   0.40902   0.41563
 Alpha virt. eigenvalues --    0.41704   0.41925   0.42027   0.42087   0.42211
 Alpha virt. eigenvalues --    0.42433   0.42467   0.42581   0.42747   0.43234
 Alpha virt. eigenvalues --    0.43261   0.43615   0.43944   0.44197   0.44202
 Alpha virt. eigenvalues --    0.44661   0.44749   0.45329   0.45497   0.45558
 Alpha virt. eigenvalues --    0.45702   0.45981   0.45995   0.46132   0.46279
 Alpha virt. eigenvalues --    0.46432   0.47012   0.47162   0.47174   0.47242
 Alpha virt. eigenvalues --    0.47584   0.47589   0.47822   0.48322   0.48455
 Alpha virt. eigenvalues --    0.48557   0.48816   0.48829   0.48969   0.49286
 Alpha virt. eigenvalues --    0.49458   0.49510   0.49996   0.50785   0.51098
 Alpha virt. eigenvalues --    0.51225   0.51677   0.51937   0.52112   0.52314
 Alpha virt. eigenvalues --    0.53323   0.53373   0.53725   0.53841   0.54388
 Alpha virt. eigenvalues --    0.55159   0.55721   0.56806   0.57586   0.57630
 Alpha virt. eigenvalues --    0.58769   0.58772   0.58874   0.59373   0.59893
 Alpha virt. eigenvalues --    0.60364   0.60441   0.60816   0.61100   0.61260
 Alpha virt. eigenvalues --    0.61417   0.61556   0.62015   0.62082   0.62127
 Alpha virt. eigenvalues --    0.62328   0.62729   0.62754   0.63420   0.63504
 Alpha virt. eigenvalues --    0.64008   0.64304   0.64457   0.64534   0.65147
 Alpha virt. eigenvalues --    0.65521   0.65752   0.66015   0.66147   0.66370
 Alpha virt. eigenvalues --    0.67334   0.67425   0.67836   0.70039   0.70110
 Alpha virt. eigenvalues --    0.70307   0.70707   0.71207   0.71435   0.71630
 Alpha virt. eigenvalues --    0.71680   0.71931   0.72127   0.72727   0.73130
 Alpha virt. eigenvalues --    0.73414   0.73748   0.73963   0.75034   0.75545
 Alpha virt. eigenvalues --    0.75706   0.76191   0.76473   0.76848   0.76998
 Alpha virt. eigenvalues --    0.77497   0.77744   0.78192   0.78987   0.79024
 Alpha virt. eigenvalues --    0.79346   0.79821   0.79867   0.80260   0.80344
 Alpha virt. eigenvalues --    0.80702   0.81094   0.81683   0.82812   0.82895
 Alpha virt. eigenvalues --    0.83220   0.83470   0.83674   0.84221   0.84450
 Alpha virt. eigenvalues --    0.84476   0.84874   0.85314   0.85387   0.87237
 Alpha virt. eigenvalues --    0.88149   0.89067   0.89436   0.89474   0.90441
 Alpha virt. eigenvalues --    0.90452   0.91495   0.91697   0.92245   0.92600
 Alpha virt. eigenvalues --    0.93005   0.93759   0.94187   0.94826   0.95724
 Alpha virt. eigenvalues --    0.95886   0.95995   0.96216   0.96690   0.96888
 Alpha virt. eigenvalues --    0.97131   0.97525   0.98076   0.98368   0.98766
 Alpha virt. eigenvalues --    0.98977   0.99720   1.00920   1.01559   1.02011
 Alpha virt. eigenvalues --    1.02848   1.02923   1.02992   1.03159   1.03554
 Alpha virt. eigenvalues --    1.04006   1.04090   1.05120   1.05257   1.05341
 Alpha virt. eigenvalues --    1.05507   1.05716   1.05853   1.05944   1.05987
 Alpha virt. eigenvalues --    1.06398   1.07178   1.07307   1.07552   1.07842
 Alpha virt. eigenvalues --    1.08019   1.08621   1.08857   1.09323   1.09842
 Alpha virt. eigenvalues --    1.09890   1.10470   1.10833   1.11789   1.12499
 Alpha virt. eigenvalues --    1.13007   1.13289   1.13587   1.13643   1.14213
 Alpha virt. eigenvalues --    1.14414   1.14705   1.14949   1.15086   1.15778
 Alpha virt. eigenvalues --    1.17144   1.17883   1.17948   1.19206   1.20280
 Alpha virt. eigenvalues --    1.20372   1.21108   1.21950   1.23051   1.23293
 Alpha virt. eigenvalues --    1.23689   1.24749   1.27905   1.28333   1.29827
 Alpha virt. eigenvalues --    1.29906   1.30737   1.31976   1.32502   1.33110
 Alpha virt. eigenvalues --    1.33230   1.34512   1.34848   1.35622   1.37752
 Alpha virt. eigenvalues --    1.38114   1.39450   1.39731   1.39814   1.39953
 Alpha virt. eigenvalues --    1.40398   1.40440   1.40585   1.41188   1.43037
 Alpha virt. eigenvalues --    1.43229   1.43504   1.43901   1.44257   1.45080
 Alpha virt. eigenvalues --    1.45415   1.45553   1.45875   1.46674   1.46820
 Alpha virt. eigenvalues --    1.47619   1.47687   1.48098   1.49110   1.49288
 Alpha virt. eigenvalues --    1.49357   1.49380   1.49744   1.49854   1.49955
 Alpha virt. eigenvalues --    1.50883   1.50892   1.51021   1.52318   1.52796
 Alpha virt. eigenvalues --    1.53145   1.53310   1.53999   1.54278   1.54362
 Alpha virt. eigenvalues --    1.54472   1.54713   1.54736   1.54782   1.55260
 Alpha virt. eigenvalues --    1.55288   1.56106   1.57247   1.57519   1.58213
 Alpha virt. eigenvalues --    1.58490   1.58758   1.59043   1.59994   1.60250
 Alpha virt. eigenvalues --    1.60404   1.60788   1.62423   1.62981   1.63235
 Alpha virt. eigenvalues --    1.63925   1.65122   1.65717   1.66330   1.67174
 Alpha virt. eigenvalues --    1.69335   1.69480   1.70004   1.70089   1.70252
 Alpha virt. eigenvalues --    1.70406   1.70718   1.71563   1.72307   1.72418
 Alpha virt. eigenvalues --    1.72557   1.72900   1.72998   1.73113   1.73336
 Alpha virt. eigenvalues --    1.73466   1.73535   1.73544   1.73674   1.74234
 Alpha virt. eigenvalues --    1.77228   1.77961   1.78404   1.78997   1.79192
 Alpha virt. eigenvalues --    1.79542   1.79697   1.80071   1.80207   1.81296
 Alpha virt. eigenvalues --    1.81360   1.81683   1.81879   1.82110   1.82361
 Alpha virt. eigenvalues --    1.82550   1.83494   1.84275   1.84403   1.84646
 Alpha virt. eigenvalues --    1.85382   1.86119   1.87030   1.87163   1.87261
 Alpha virt. eigenvalues --    1.87717   1.87885   1.87984   1.88022   1.88211
 Alpha virt. eigenvalues --    1.88551   1.88870   1.89012   1.89142   1.90801
 Alpha virt. eigenvalues --    1.90969   1.91354   1.91650   1.91910   1.92377
 Alpha virt. eigenvalues --    1.92416   1.92591   1.92645   1.92775   1.93062
 Alpha virt. eigenvalues --    1.93328   1.93547   1.93668   1.94376   1.94473
 Alpha virt. eigenvalues --    1.95005   1.95209   1.95250   1.95918   1.97259
 Alpha virt. eigenvalues --    1.97723   1.99340   1.99886   2.00417   2.00450
 Alpha virt. eigenvalues --    2.00580   2.00960   2.01308   2.02701   2.02881
 Alpha virt. eigenvalues --    2.03496   2.05499   2.06681   2.07953   2.08895
 Alpha virt. eigenvalues --    2.09059   2.09383   2.09620   2.09689   2.09924
 Alpha virt. eigenvalues --    2.10284   2.12045   2.12635   2.13963   2.14586
 Alpha virt. eigenvalues --    2.15467   2.16038   2.16156   2.16421   2.16946
 Alpha virt. eigenvalues --    2.17616   2.19668   2.20529   2.20571   2.21344
 Alpha virt. eigenvalues --    2.21425   2.22091   2.22357   2.23062   2.23205
 Alpha virt. eigenvalues --    2.24034   2.24398   2.24969   2.26192   2.26681
 Alpha virt. eigenvalues --    2.26978   2.27015   2.27416   2.27612   2.27681
 Alpha virt. eigenvalues --    2.28153   2.28445   2.28956   2.29778   2.30222
 Alpha virt. eigenvalues --    2.33216   2.34076   2.35530   2.36171   2.39078
 Alpha virt. eigenvalues --    2.39228   2.39803   2.39845   2.40782   2.41382
 Alpha virt. eigenvalues --    2.42408   2.42829   2.43098   2.43538   2.45559
 Alpha virt. eigenvalues --    2.45757   2.46230   2.46424   2.46594   2.47394
 Alpha virt. eigenvalues --    2.51273   2.52186   2.52202   2.52965   2.52984
 Alpha virt. eigenvalues --    2.53564   2.54246   2.54349   2.55065   2.55779
 Alpha virt. eigenvalues --    2.56320   2.56997   2.58420   2.58569   2.59162
 Alpha virt. eigenvalues --    2.59429   2.59533   2.60237   2.60270   2.60428
 Alpha virt. eigenvalues --    2.60583   2.60996   2.61320   2.61364   2.61925
 Alpha virt. eigenvalues --    2.61952   2.62487   2.62876   2.63401   2.63995
 Alpha virt. eigenvalues --    2.64000   2.64354   2.65346   2.65626   2.65867
 Alpha virt. eigenvalues --    2.66666   2.66681   2.67005   2.67310   2.67828
 Alpha virt. eigenvalues --    2.68055   2.68345   2.68696   2.68718   2.69010
 Alpha virt. eigenvalues --    2.69205   2.69248   2.69524   2.69608   2.69613
 Alpha virt. eigenvalues --    2.70170   2.70367   2.70730   2.71330   2.72142
 Alpha virt. eigenvalues --    2.72885   2.73497   2.73622   2.74269   2.74790
 Alpha virt. eigenvalues --    2.74899   2.74970   2.76105   2.76155   2.76733
 Alpha virt. eigenvalues --    2.76921   2.77161   2.77633   2.78300   2.78562
 Alpha virt. eigenvalues --    2.78689   2.78954   2.79025   2.79321   2.80938
 Alpha virt. eigenvalues --    2.81533   2.81793   2.82445   2.83353   2.85814
 Alpha virt. eigenvalues --    2.85848   2.86347   2.86479   2.86601   2.87590
 Alpha virt. eigenvalues --    2.87885   2.88039   2.89299   2.90724   2.91443
 Alpha virt. eigenvalues --    2.92049   2.92440   2.93303   2.93445   2.93881
 Alpha virt. eigenvalues --    2.95034   2.95188   2.95881   2.96267   2.96858
 Alpha virt. eigenvalues --    2.98965   2.99820   3.00046   3.01991   3.03359
 Alpha virt. eigenvalues --    3.04322   3.06156   3.06284   3.07431   3.07962
 Alpha virt. eigenvalues --    3.08061   3.08546   3.15750   3.15851   3.16365
 Alpha virt. eigenvalues --    3.16572   3.16647   3.17254   3.19683   3.19810
 Alpha virt. eigenvalues --    3.20391   3.20602   3.23359   3.24077   3.28849
 Alpha virt. eigenvalues --    3.29415   3.29761   3.30205   3.31467   3.32181
 Alpha virt. eigenvalues --    3.34837   3.35220   3.35493   3.35730   3.35933
 Alpha virt. eigenvalues --    3.36078   3.36330   3.36636   3.37758   3.38554
 Alpha virt. eigenvalues --    3.39657   3.40429   3.41084   3.42079   3.44772
 Alpha virt. eigenvalues --    3.45167   3.45459   3.45909   3.47762   3.48035
 Alpha virt. eigenvalues --    3.48642   3.48889   3.50154   3.50906   3.52856
 Alpha virt. eigenvalues --    3.53728   3.57187   3.57973   3.58455   3.59152
 Alpha virt. eigenvalues --    3.61229   3.62102   3.62399   3.62914   3.63207
 Alpha virt. eigenvalues --    3.63435   3.64429   3.64770   3.65649   3.66487
 Alpha virt. eigenvalues --    3.67183   3.67320   3.68385   3.68435   4.00134
 Alpha virt. eigenvalues --    4.00189   4.01025   4.01062   4.01653   4.01947
 Alpha virt. eigenvalues --    4.02320   4.02659   4.15869   4.16416   4.16768
 Alpha virt. eigenvalues --    4.17141   4.17331   4.18622   4.20993   4.21807
 Alpha virt. eigenvalues --    4.22161   4.22310   4.22997   4.23146   4.25205
 Alpha virt. eigenvalues --    4.26423   4.38229   4.39279   4.61895   4.63194
 Alpha virt. eigenvalues --    4.78851   4.79432   4.79684   4.80220   4.80259
 Alpha virt. eigenvalues --    4.81179   4.82242   4.82639   4.83301   4.83849
 Alpha virt. eigenvalues --   23.38950  23.39901  23.54270  23.55135  23.68829
 Alpha virt. eigenvalues --   23.69604  23.77068  23.77949  23.80150  23.80897
 Alpha virt. eigenvalues --   23.81241  23.82078  23.85810  23.86606  23.88783
 Alpha virt. eigenvalues --   23.88860  23.89558  23.89634  23.91912  23.92736
 Alpha virt. eigenvalues --   23.97239  23.98023  23.98085  23.98818  24.08736
 Alpha virt. eigenvalues --   24.09516  24.09617  24.10214  24.10385  24.10981
 Alpha virt. eigenvalues --   24.11907  24.12791  24.13463  24.14054  24.14342
 Alpha virt. eigenvalues --   24.15011  24.15479  24.15513  24.16179  24.16213
 Alpha virt. eigenvalues --   24.20156  24.20202  24.20952  24.20996
          Condensed to atoms (all electrons):
 Mulliken charges:
               1
     1  C   -0.051765
     2  C   -0.059950
     3  C   -0.062978
     4  C   -0.053096
     5  C   -0.090461
     6  C   -0.091164
     7  C   -0.028120
     8  C   -0.046203
     9  C   -0.012117
    10  C   -0.055873
    11  H    0.083119
    12  H    0.075117
    13  H    0.076571
    14  H    0.083610
    15  H    0.095983
    16  H    0.095864
    17  C   -0.031801
    18  C   -0.046203
    19  C   -0.015866
    20  C   -0.055873
    21  H    0.073727
    22  H    0.075215
    23  C   -0.028120
    24  C   -0.051765
    25  C   -0.012117
    26  C   -0.059950
    27  H    0.075117
    28  H    0.076571
    29  C   -0.062978
    30  C   -0.090461
    31  C   -0.053096
    32  C   -0.091164
    33  H    0.083119
    34  H    0.095864
    35  H    0.095983
    36  H    0.083610
    37  C   -0.045399
    38  C   -0.081740
    39  C   -0.058805
    40  C   -0.051630
    41  C   -0.089786
    42  C   -0.102467
    43  C   -0.022333
    44  C   -0.037463
    45  C   -0.012385
    46  C   -0.081187
    47  H    0.080475
    48  H    0.072756
    49  H    0.087844
    50  H    0.091506
    51  H    0.091033
    52  H    0.093031
    53  C   -0.026363
    54  C   -0.037463
    55  C   -0.016483
    56  C   -0.081187
    57  H    0.071347
    58  H    0.086253
    59  C   -0.022333
    60  C   -0.045399
    61  C   -0.012385
    62  C   -0.081740
    63  H    0.072756
    64  H    0.087844
    65  C   -0.058805
    66  C   -0.089786
    67  C   -0.051630
    68  C   -0.102467
    69  H    0.080475
    70  H    0.093031
    71  H    0.091033
    72  H    0.091506
 Sum of Mulliken charges =   0.00000
 Mulliken charges with hydrogens summed into heavy atoms:
               1
     1  C   -0.051765
     2  C   -0.059950
     3  C    0.020140
     4  C    0.030514
     5  C    0.005403
     6  C    0.004818
     7  C    0.046997
     8  C   -0.046203
     9  C    0.064455
    10  C   -0.055873
    17  C    0.041926
    18  C   -0.046203
    19  C    0.059348
    20  C   -0.055873
    23  C    0.046997
    24  C   -0.051765
    25  C    0.064455
    26  C   -0.059950
    29  C    0.020140
    30  C    0.005403
    31  C    0.030514
    32  C    0.004818
    37  C   -0.045399
    38  C   -0.081740
    39  C    0.021670
    40  C    0.039876
    41  C    0.003245
    42  C   -0.011434
    43  C    0.050423
    44  C   -0.037463
    45  C    0.075459
    46  C   -0.081187
    53  C    0.044984
    54  C   -0.037463
    55  C    0.069770
    56  C   -0.081187
    59  C    0.050423
    60  C   -0.045399
    61  C    0.075459
    62  C   -0.081740
    65  C    0.021670
    66  C    0.003245
    67  C    0.039876
    68  C   -0.011434
         Mulliken charges condensed to fragments:
      1      0.018346
      2     -0.018346
 Electronic spatial extent (au):  <R**2>=          29024.4586
 Charge=              0.0000 electrons
 Dipole moment (field-independent basis, Debye):
    X=              0.5490    Y=             -0.7284    Z=              0.0000  Tot=              0.9121
 Quadrupole moment (field-independent basis, Debye-Ang):
   XX=           -247.9196   YY=           -246.4300   ZZ=           -218.7321
   XY=             -0.5597   XZ=              0.0000   YZ=              0.0000
 Traceless Quadrupole moment (field-independent basis, Debye-Ang):
   XX=            -10.2257   YY=             -8.7361   ZZ=             18.9618
   XY=             -0.5597   XZ=              0.0000   YZ=              0.0000
 Octapole moment (field-independent basis, Debye-Ang**2):
  XXX=           -206.0394  YYY=           -115.1749  ZZZ=              0.0000  XYY=             77.3993
  XXY=             29.7031  XXZ=              0.0000  XZZ=             14.5304  YZZ=            -13.1998
  YYZ=              0.0000  XYZ=              0.0000
 Hexadecapole moment (field-independent basis, Debye-Ang**3):
 XXXX=         -13163.4388 YYYY=          -4222.3581 ZZZZ=         -20966.8917 XXXY=           2968.0170
 XXXZ=              0.0000 YYYX=           2956.7223 YYYZ=              0.0000 ZZZX=              0.0000
 ZZZY=              0.0000 XXYY=          -2981.2276 XXZZ=          -5935.1513 YYZZ=          -4606.3833
 XXYZ=              0.0000 YYXZ=              0.0000 ZZXY=            868.1880
 N-N= 4.438265871596D+03 E-N=-1.280681980678D+04  KE= 1.686669142531D+03
 Symmetry A'   KE= 9.134071330003D+02
 Symmetry A"   KE= 7.732620095304D+02
 No NMR shielding tensors so no spin-rotation constants.
 Leave Link  601 at Wed Sep 27 16:39:32 2023, MaxMem=  3221225472 cpu:              52.4 elap:               1.5
 (Enter /home/center/opt/aarch64/apps/gaussian16/c01/g16/l122.exe)
 CPIOFr:  IOpCl= 0 IRwI=-1 IRwCP=  731 ICalc= -1 LCPTot=     1419224 Len1MO=     3708034 IndFrg=     1419224
 CPIOFr:  IOpCl= 0 IRwI=-1 IRwCP=  731 ICalc=  0 LCPTot=     1419224 Len1MO=     3708034 IndFrg=     5127258
 Counterpoise: doing calculation for fragment   1 using the basis set of the full-system, NewBq=T
 Leave Link  122 at Wed Sep 27 16:39:35 2023, MaxMem=  3221225472 cpu:               8.3 elap:               0.4
 (Enter /home/center/opt/aarch64/apps/gaussian16/c01/g16/l301.exe)
 Basis read from rwf:  (5D, 7F)
 No pseudopotential information found on rwf file.
 There are   528 symmetry adapted cartesian basis functions of A'  symmetry.
 There are   476 symmetry adapted cartesian basis functions of A"  symmetry.
 There are   504 symmetry adapted basis functions of A'  symmetry.
 There are   456 symmetry adapted basis functions of A"  symmetry.
   960 basis functions,  1632 primitive gaussians,  1004 cartesian basis functions
    73 alpha electrons       73 beta electrons
       nuclear repulsion energy      1494.3575062298 Hartrees.
 IExCor=  402 DFT=T Ex+Corr=B3LYP ExCW=0 ScaHFX=  0.200000
 ScaDFX=  0.800000  0.720000  1.000000  0.810000 ScalE2=  1.000000  1.000000
 IRadAn=      5 IRanWt=     -1 IRanGd=            0 ICorTp=0 IEmpDi=131
 NAtoms=   72 NActive=   72 NUniq=   40 SFac= 3.24D+00 NAtFMM=   60 NAOKFM=T Big=F
 Integral buffers will be    131072 words long.
 Raffenetti 2 integral format.
 Two-electron integral symmetry is turned on.
 R6Disp:  Grimme-D3 Dispersion energy=       -0.0303938888 Hartrees.
 Nuclear repulsion after empirical dispersion term =     1494.3271123410 Hartrees.
 No density basis found on file    718.
 Leave Link  301 at Wed Sep 27 16:39:38 2023, MaxMem=  3221225472 cpu:               4.6 elap:               0.2
 (Enter /home/center/opt/aarch64/apps/gaussian16/c01/g16/l302.exe)
 NPDir=0 NMtPBC=     1 NCelOv=     1 NCel=       1 NClECP=     1 NCelD=      1
         NCelK=      1 NCelE2=     1 NClLst=     1 CellRange=     0.0.
 One-electron integrals computed using PRISM.
 One-electron integral symmetry used in STVInt
 NBasis=   960 RedAO= T EigKep=  4.04D-05  NBF=   504   456
 NBsUse=   960 1.00D-06 EigRej= -1.00D+00 NBFU=   504   456
 Precomputing XC quadrature grid using
 IXCGrd= 4 IRadAn=           5 IRanWt=          -1 IRanGd=           0 AccXCQ= 0.00D+00.
 Generated NRdTot=       0 NPtTot=           0 NUsed=           0 NTot=          32
 NSgBfM=   981   981   981   981   981 MxSgAt=    72 MxSgA2=    72.
 Leave Link  302 at Wed Sep 27 16:39:41 2023, MaxMem=  3221225472 cpu:              58.3 elap:               1.6
 (Enter /home/center/opt/aarch64/apps/gaussian16/c01/g16/l303.exe)
 DipDrv:  MaxL=1.
 Leave Link  303 at Wed Sep 27 16:39:44 2023, MaxMem=  3221225472 cpu:              12.7 elap:               0.4
 (Enter /home/center/opt/aarch64/apps/gaussian16/c01/g16/l401.exe)
 ExpMin= 1.03D-01 ExpMax= 4.56D+03 ExpMxC= 6.82D+02 IAcc=3 IRadAn=         5 AccDes= 0.00D+00
 Harris functional with IExCor=  402 and IRadAn=       5 diagonalized for initial guess.
 HarFok:  IExCor=  402 AccDes= 0.00D+00 IRadAn=         5 IDoV= 1 UseB2=F ITyADJ=14
 ICtDFT=  3500011 ScaDFX=  1.000000  1.000000  1.000000  1.000000
 FoFCou: FMM=F IPFlag=           0 FMFlag=      100000 FMFlg1=        2000
         NFxFlg=           0 DoJE=T BraDBF=F KetDBF=T FulRan=T
         wScrn=  0.000000 ICntrl=       500 IOpCl=  0 I1Cent=   200000004 NGrid=           0
         NMat0=    1 NMatS0=      1 NMatT0=    0 NMatD0=    1 NMtDS0=    0 NMtDT0=    0
 Petite list used in FoFCou.
 Harris En= -847.064918114149    
 JPrj=0 DoOrth=F DoCkMO=F.
 Initial guess orbital symmetries:
       Occupied  (A") (A') (A') (A") (A") (A') (A") (A') (A') (A")
                 (A") (A') (A') (A') (A") (A') (A") (A') (A") (A')
                 (A') (A") (A') (A") (A') (A") (A') (A') (A") (A')
                 (A") (A") (A') (A') (A") (A") (A') (A") (A') (A')
                 (A') (A") (A") (A") (A') (A') (A") (A') (A') (A")
                 (A') (A") (A") (A') (A') (A") (A') (A") (A') (A")
                 (A") (A') (A') (A") (A') (A") (A') (A") (A') (A')
                 (A") (A") (A')
       Virtual   (A') (A") (A") (A') (A') (A") (A') (A") (A') (A")
                 (A') (A') (A") (A') (A") (A') (A") (A') (A') (A")
                 (A") (A') (A') (A") (A') (A") (A') (A') (A') (A")
                 (A') (A") (A') (A") (A") (A') (A') (A") (A") (A')
                 (A') (A") (A") (A') (A") (A') (A') (A") (A") (A')
                 (A') (A") (A") (A') (A') (A") (A') (A') (A") (A')
                 (A') (A") (A') (A") (A") (A') (A') (A") (A") (A')
                 (A') (A") (A") (A') (A') (A") (A') (A') (A') (A")
                 (A') (A") (A') (A") (A') (A') (A") (A") (A") (A')
                 (A') (A") (A") (A") (A') (A") (A') (A") (A') (A')
                 (A') (A') (A") (A") (A') (A') (A") (A') (A') (A")
                 (A') (A") (A') (A') (A") (A") (A") (A") (A') (A")
                 (A") (A') (A') (A") (A") (A') (A') (A') (A") (A')
                 (A') (A") (A') (A') (A') (A') (A") (A') (A") (A")
                 (A') (A") (A') (A") (A') (A") (A') (A') (A") (A")
                 (A') (A") (A") (A") (A') (A") (A') (A') (A') (A")
                 (A') (A") (A') (A") (A') (A') (A") (A') (A") (A')
                 (A") (A') (A") (A") (A") (A') (A") (A') (A') (A')
                 (A') (A") (A") (A') (A") (A") (A') (A") (A") (A')
                 (A') (A') (A") (A') (A') (A') (A") (A") (A') (A')
                 (A") (A") (A") (A") (A') (A") (A') (A") (A') (A')
                 (A') (A') (A") (A") (A') (A") (A") (A') (A") (A")
                 (A') (A') (A') (A') (A") (A') (A') (A") (A') (A")
                 (A") (A') (A") (A') (A') (A") (A") (A') (A") (A")
                 (A') (A") (A') (A') (A") (A') (A') (A") (A") (A")
                 (A") (A') (A') (A") (A') (A') (A') (A') (A") (A')
                 (A") (A") (A") (A') (A') (A') (A") (A") (A') (A")
                 (A') (A") (A') (A") (A') (A") (A') (A") (A') (A')
                 (A") (A") (A') (A') (A") (A") (A') (A") (A') (A")
                 (A') (A') (A") (A") (A') (A') (A') (A') (A") (A')
                 (A") (A') (A") (A") (A') (A") (A') (A') (A") (A")
                 (A") (A') (A") (A") (A') (A') (A') (A') (A") (A")
                 (A') (A') (A') (A") (A") (A') (A") (A') (A") (A')
                 (A") (A') (A') (A') (A") (A') (A") (A') (A") (A')
                 (A') (A") (A") (A') (A") (A") (A') (A") (A') (A')
                 (A') (A") (A") (A') (A") (A") (A') (A') (A') (A')
                 (A") (A') (A') (A") (A") (A") (A') (A") (A') (A')
                 (A") (A") (A') (A") (A') (A") (A') (A") (A") (A")
                 (A') (A') (A') (A") (A") (A') (A') (A') (A") (A')
                 (A") (A') (A") (A") (A') (A') (A") (A') (A") (A")
                 (A") (A') (A') (A") (A') (A") (A") (A') (A') (A")
                 (A') (A") (A') (A') (A") (A") (A') (A") (A') (A")
                 (A') (A') (A") (A') (A") (A") (A') (A") (A') (A")
                 (A') (A") (A') (A') (A') (A") (A") (A') (A') (A")
                 (A") (A') (A') (A') (A') (A") (A") (A") (A") (A')
                 (A") (A') (A') (A') (A') (A") (A") (A') (A") (A")
                 (A') (A") (A') (A") (A') (A") (A') (A") (A') (A')
                 (A") (A') (A") (A") (A') (A") (A') (A") (A') (A")
                 (A') (A") (A") (A') (A") (A') (A') (A") (A') (A")
                 (A") (A') (A") (A') (A') (A") (A') (A') (A") (A")
                 (A') (A') (A") (A") (A') (A") (A') (A") (A') (A")
                 (A') (A') (A') (A") (A") (A") (A") (A") (A') (A')
                 (A') (A") (A') (A") (A') (A") (A') (A') (A") (A')
                 (A') (A") (A") (A') (A') (A') (A") (A') (A') (A")
                 (A") (A") (A') (A') (A') (A") (A") (A') (A') (A")
                 (A") (A") (A') (A") (A') (A') (A') (A') (A") (A")
                 (A') (A') (A") (A") (A') (A") (A") (A") (A') (A")
                 (A') (A') (A') (A') (A") (A') (A') (A") (A") (A")
                 (A') (A') (A") (A") (A') (A') (A") (A") (A") (A")
                 (A') (A') (A') (A') (A') (A') (A") (A') (A") (A")
                 (A") (A') (A") (A") (A') (A') (A") (A') (A") (A')
                 (A') (A") (A') (A") (A') (A") (A') (A') (A") (A")
                 (A') (A') (A") (A") (A') (A") (A') (A") (A") (A')
                 (A") (A') (A") (A") (A") (A') (A') (A') (A') (A")
                 (A') (A") (A') (A') (A") (A") (A') (A") (A') (A")
                 (A') (A") (A') (A") (A') (A') (A") (A") (A") (A')
                 (A") (A') (A") (A') (A") (A') (A") (A") (A') (A')
                 (A') (A") (A") (A') (A') (A") (A') (A") (A') (A')
                 (A") (A') (A") (A') (A") (A') (A") (A') (A') (A")
                 (A') (A") (A') (A') (A") (A") (A") (A') (A') (A')
                 (A") (A") (A') (A") (A') (A") (A') (A') (A") (A')
                 (A") (A') (A") (A') (A") (A') (A') (A") (A') (A')
                 (A") (A") (A') (A") (A") (A') (A') (A') (A') (A")
                 (A") (A") (A') (A") (A') (A") (A') (A") (A") (A')
                 (A") (A') (A") (A') (A") (A') (A') (A") (A") (A')
                 (A') (A") (A') (A') (A") (A') (A") (A') (A") (A')
                 (A") (A') (A') (A") (A") (A') (A') (A') (A") (A")
                 (A") (A') (A') (A") (A') (A') (A") (A') (A") (A')
                 (A") (A') (A') (A") (A") (A") (A') (A") (A') (A')
                 (A") (A") (A') (A") (A') (A") (A') (A') (A') (A")
                 (A") (A') (A") (A') (A") (A') (A") (A') (A') (A")
                 (A") (A') (A') (A") (A') (A") (A") (A') (A") (A')
[...]
                 (A') (A') (A") (A") (A') (A") (A') (A") (A') (A')
                 (A") (A") (A')
       Virtual   (A') (A") (A") (A') (A') (A") (A') (A') (A') (A")
                 (A") (A') (A") (A') (A") (A') (A") (A") (A') (A")
                 (A') (A') (A") (A') (A") (A') (A') (A') (A') (A")
                 (A") (A") (A") (A') (A') (A") (A') (A") (A') (A")
                 (A') (A') (A') (A") (A') (A") (A") (A') (A') (A")
                 (A") (A') (A') (A") (A') (A") (A") (A") (A') (A")
                 (A') (A') (A') (A') (A') (A") (A') (A') (A") (A")
                 (A") (A') (A') (A') (A") (A') (A") (A") (A") (A')
                 (A') (A") (A') (A") (A") (A') (A") (A') (A') (A')
                 (A') (A') (A") (A") (A") (A") (A') (A") (A') (A")
                 (A') (A') (A') (A") (A") (A') (A') (A") (A') (A")
                 (A') (A") (A") (A") (A') (A') (A") (A') (A') (A")
                 (A') (A") (A") (A') (A') (A") (A') (A") (A') (A")
                 (A") (A') (A') (A') (A') (A") (A") (A") (A') (A")
                 (A') (A") (A') (A") (A') (A') (A") (A") (A') (A")
                 (A') (A") (A') (A") (A') (A') (A") (A') (A") (A")
                 (A') (A") (A') (A') (A") (A") (A') (A") (A') (A")
                 (A') (A') (A") (A') (A') (A") (A") (A') (A') (A')
                 (A") (A') (A") (A") (A") (A") (A') (A") (A') (A')
                 (A") (A') (A") (A') (A') (A') (A") (A') (A") (A')
                 (A") (A") (A') (A') (A") (A") (A') (A') (A") (A')
                 (A') (A') (A') (A") (A") (A") (A") (A') (A') (A")
                 (A') (A") (A") (A') (A") (A') (A") (A') (A") (A')
                 (A") (A') (A') (A") (A') (A") (A") (A') (A') (A")
                 (A") (A') (A') (A") (A") (A') (A") (A") (A") (A')
                 (A') (A") (A') (A') (A") (A') (A') (A") (A') (A")
                 (A") (A') (A") (A') (A') (A") (A") (A") (A') (A')
                 (A") (A') (A') (A") (A") (A") (A') (A") (A') (A')
                 (A") (A') (A") (A') (A") (A') (A') (A') (A") (A')
                 (A") (A") (A') (A') (A") (A") (A') (A") (A') (A")
                 (A') (A') (A") (A") (A') (A') (A") (A') (A') (A')
                 (A") (A") (A') (A") (A') (A") (A') (A") (A') (A')
                 (A') (A") (A") (A") (A') (A") (A') (A') (A') (A")
                 (A") (A') (A") (A') (A') (A") (A') (A") (A") (A')
                 (A') (A") (A') (A") (A") (A') (A') (A") (A') (A")
                 (A') (A") (A') (A") (A') (A") (A") (A') (A') (A")
                 (A') (A") (A') (A') (A") (A") (A') (A") (A') (A')
                 (A") (A') (A") (A') (A') (A") (A') (A") (A') (A")
                 (A") (A') (A") (A') (A") (A') (A") (A') (A') (A")
                 (A") (A') (A") (A') (A') (A") (A") (A') (A') (A")
                 (A') (A") (A') (A") (A') (A') (A")
 The electronic state is 1-A'.
 Alpha  occ. eigenvalues --  -10.18931 -10.18930 -10.18896 -10.18895 -10.18848
 Alpha  occ. eigenvalues --  -10.18848 -10.18813 -10.18813 -10.17956 -10.17955
 Alpha  occ. eigenvalues --  -10.17920 -10.17920 -10.17919 -10.17919 -10.17875
 Alpha  occ. eigenvalues --  -10.17875 -10.17863 -10.17863 -10.17808 -10.17808
 Alpha  occ. eigenvalues --  -10.17781 -10.17781  -0.89340  -0.87865  -0.85549
 Alpha  occ. eigenvalues --   -0.82415  -0.79820  -0.78521  -0.78314  -0.75991
 Alpha  occ. eigenvalues --   -0.74255  -0.72901  -0.69196  -0.67344  -0.62728
 Alpha  occ. eigenvalues --   -0.62370  -0.61108  -0.59964  -0.59301  -0.57689
 Alpha  occ. eigenvalues --   -0.52709  -0.52573  -0.52293  -0.49654  -0.48513
 Alpha  occ. eigenvalues --   -0.47160  -0.46110  -0.45590  -0.45476  -0.43928
 Alpha  occ. eigenvalues --   -0.43182  -0.42578  -0.41808  -0.41572  -0.41386
 Alpha  occ. eigenvalues --   -0.40692  -0.40405  -0.39579  -0.38193  -0.36732
 Alpha  occ. eigenvalues --   -0.36341  -0.35550  -0.34094  -0.33809  -0.33058
 Alpha  occ. eigenvalues --   -0.32930  -0.31612  -0.29665  -0.28406  -0.26623
 Alpha  occ. eigenvalues --   -0.24364  -0.22582  -0.17855
 Alpha virt. eigenvalues --   -0.09755  -0.04464  -0.02747  -0.00147   0.02073
 Alpha virt. eigenvalues --    0.02370   0.03189   0.04746   0.04859   0.04871
 Alpha virt. eigenvalues --    0.06161   0.06575   0.07968   0.08162   0.08303
 Alpha virt. eigenvalues --    0.09607   0.10049   0.11524   0.11533   0.13796
 Alpha virt. eigenvalues --    0.14111   0.14670   0.18092   0.18194   0.18832
 Alpha virt. eigenvalues --    0.19391   0.22815   0.23002   0.24379   0.24942
 Alpha virt. eigenvalues --    0.25581   0.27528   0.27575   0.28012   0.28228
 Alpha virt. eigenvalues --    0.28947   0.29389   0.30158   0.30759   0.31175
 Alpha virt. eigenvalues --    0.32897   0.34528   0.36420   0.36484   0.37134
 Alpha virt. eigenvalues --    0.37503   0.37629   0.37651   0.38116   0.38643
 Alpha virt. eigenvalues --    0.39094   0.39439   0.39739   0.40236   0.40435
 Alpha virt. eigenvalues --    0.41918   0.41926   0.41940   0.42289   0.42318
 Alpha virt. eigenvalues --    0.42643   0.43748   0.44233   0.44835   0.45295
 Alpha virt. eigenvalues --    0.45683   0.45924   0.45953   0.46379   0.47165
 Alpha virt. eigenvalues --    0.47805   0.47809   0.47978   0.48073   0.48231
 Alpha virt. eigenvalues --    0.48568   0.49414   0.49572   0.51377   0.51846
 Alpha virt. eigenvalues --    0.52370   0.53118   0.53671   0.55998   0.57923
 Alpha virt. eigenvalues --    0.57955   0.59048   0.59201   0.60433   0.60585
 Alpha virt. eigenvalues --    0.60693   0.61101   0.61690   0.62105   0.62173
 Alpha virt. eigenvalues --    0.63432   0.63481   0.64458   0.64535   0.65533
 Alpha virt. eigenvalues --    0.66693   0.66910   0.67680   0.67724   0.70658
 Alpha virt. eigenvalues --    0.71305   0.71405   0.71494   0.72803   0.73989
 Alpha virt. eigenvalues --    0.75405   0.75894   0.76289   0.77801   0.77809
 Alpha virt. eigenvalues --    0.78943   0.79160   0.79723   0.81162   0.81509
 Alpha virt. eigenvalues --    0.82881   0.83001   0.84383   0.84585   0.84713
 Alpha virt. eigenvalues --    0.88087   0.89711   0.89765   0.91536   0.92083
 Alpha virt. eigenvalues --    0.92578   0.93749   0.95806   0.96107   0.96442
 Alpha virt. eigenvalues --    0.96590   0.96905   0.98547   1.00356   1.01118
 Alpha virt. eigenvalues --    1.02686   1.03027   1.03354   1.04405   1.05244
 Alpha virt. eigenvalues --    1.05439   1.05525   1.05950   1.07395   1.07547
 Alpha virt. eigenvalues --    1.07686   1.08438   1.10005   1.10036   1.12070
 Alpha virt. eigenvalues --    1.13223   1.13544   1.13650   1.14526   1.15341
 Alpha virt. eigenvalues --    1.17432   1.18332   1.19657   1.20432   1.23014
 Alpha virt. eigenvalues --    1.23618   1.27884   1.28234   1.30579   1.32076
 Alpha virt. eigenvalues --    1.32743   1.34942   1.37641   1.39236   1.39896
 Alpha virt. eigenvalues --    1.39942   1.40725   1.42751   1.43476   1.43554
 Alpha virt. eigenvalues --    1.45057   1.46086   1.47119   1.47538   1.48841
 Alpha virt. eigenvalues --    1.49280   1.49417   1.50258   1.50674   1.52268
 Alpha virt. eigenvalues --    1.52650   1.53402   1.54331   1.54372   1.54781
 Alpha virt. eigenvalues --    1.54807   1.57107   1.57715   1.58569   1.59882
 Alpha virt. eigenvalues --    1.60106   1.62692   1.63242   1.64856   1.66641
 Alpha virt. eigenvalues --    1.69292   1.69605   1.69709   1.70649   1.71804
 Alpha virt. eigenvalues --    1.72459   1.72619   1.73075   1.73096   1.73680
 Alpha virt. eigenvalues --    1.77494   1.78519   1.79157   1.79419   1.80511
 Alpha virt. eigenvalues --    1.81616   1.81887   1.82058   1.83581   1.84039
 Alpha virt. eigenvalues --    1.85487   1.87392   1.87456   1.87577   1.87728
 Alpha virt. eigenvalues --    1.88131   1.88613   1.90743   1.91387   1.92190
 Alpha virt. eigenvalues --    1.92193   1.92572   1.92670   1.93517   1.93938
 Alpha virt. eigenvalues --    1.94544   1.95483   1.97262   1.99429   2.00088
 Alpha virt. eigenvalues --    2.00602   2.01362   2.03019   2.05757   2.08293
 Alpha virt. eigenvalues --    2.09111   2.09256   2.09792   2.12192   2.14098
 Alpha virt. eigenvalues --    2.15528   2.15584   2.17200   2.19751   2.20833
 Alpha virt. eigenvalues --    2.21576   2.22525   2.23381   2.24503   2.26441
 Alpha virt. eigenvalues --    2.26972   2.27242   2.27719   2.28046   2.29391
 Alpha virt. eigenvalues --    2.33301   2.35725   2.39155   2.39384   2.40817
 Alpha virt. eigenvalues --    2.42649   2.43076   2.45776   2.45994   2.46870
 Alpha virt. eigenvalues --    2.51623   2.51954   2.53354   2.53485   2.55138
 Alpha virt. eigenvalues --    2.56159   2.58701   2.58838   2.59764   2.59776
 Alpha virt. eigenvalues --    2.60682   2.61147   2.61719   2.62222   2.63349
 Alpha virt. eigenvalues --    2.63999   2.64478   2.66054   2.66794   2.67121
 Alpha virt. eigenvalues --    2.67374   2.68356   2.68872   2.68876   2.69372
 Alpha virt. eigenvalues --    2.69557   2.69907   2.70083   2.70281   2.73482
 Alpha virt. eigenvalues --    2.74771   2.74836   2.76066   2.77101   2.77577
 Alpha virt. eigenvalues --    2.78232   2.78455   2.78850   2.80822   2.82359
 Alpha virt. eigenvalues --    2.85535   2.85993   2.86737   2.87294   2.90966
 Alpha virt. eigenvalues --    2.91783   2.92195   2.93676   2.95232   2.95887
 Alpha virt. eigenvalues --    2.99270   2.99858   3.03165   3.05604   3.06852
 Alpha virt. eigenvalues --    3.07371   3.15988   3.16029   3.16647   3.19843
 Alpha virt. eigenvalues --    3.20017   3.23601   3.29134   3.29680   3.31610
 Alpha virt. eigenvalues --    3.35095   3.35458   3.35677   3.35858   3.38023
 Alpha virt. eigenvalues --    3.39887   3.41413   3.44960   3.45362   3.47993
 Alpha virt. eigenvalues --    3.48278   3.50401   3.53073   3.57439   3.58649
 Alpha virt. eigenvalues --    3.61466   3.62620   3.63208   3.63698   3.65910
 Alpha virt. eigenvalues --    3.67534   3.67678   4.00384   4.00442   4.01859
 Alpha virt. eigenvalues --    4.02182   4.16133   4.16678   4.17360   4.21240
 Alpha virt. eigenvalues --    4.22396   4.22517   4.25488   4.38492   4.62290
 Alpha virt. eigenvalues --    4.79179   4.79740   4.80562   4.82562   4.83014
 Alpha virt. eigenvalues --   23.39176  23.54541  23.69085  23.77378  23.80419
 Alpha virt. eigenvalues --   23.81537  23.86099  23.89067  23.89154  23.92210
 Alpha virt. eigenvalues --   23.97563  23.98365  24.09049  24.09932  24.10529
 Alpha virt. eigenvalues --   24.12220  24.13779  24.14375  24.15775  24.15810
 Alpha virt. eigenvalues --   24.20452  24.20497
          Condensed to atoms (all electrons):
 Mulliken charges:
               1
     1  C    0.000000
     2  C    0.000000
     3  C    0.000000
     4  C    0.000000
     5  C    0.000000
     6  C    0.000000
     7  C    0.000000
     8  C    0.000000
     9  C    0.000000
    10  C    0.000000
    11  H    0.000000
    12  H    0.000000
    13  H    0.000000
    14  H    0.000000
    15  H    0.000000
    16  H    0.000000
    17  C    0.000000
    18  C    0.000000
    19  C    0.000000
    20  C    0.000000
    21  H    0.000000
    22  H    0.000000
    23  C    0.000000
    24  C    0.000000
    25  C    0.000000
    26  C    0.000000
    27  H    0.000000
    28  H    0.000000
    29  C    0.000000
    30  C    0.000000
    31  C    0.000000
    32  C    0.000000
    33  H    0.000000
    34  H    0.000000
    35  H    0.000000
    36  H    0.000000
    37  C   -0.059168
    38  C   -0.059168
    39  C   -0.055977
    40  C   -0.055977
    41  C   -0.092198
    42  C   -0.092198
    43  C   -0.016525
    44  C   -0.054498
    45  C   -0.016525
    46  C   -0.054498
    47  H    0.082122
    48  H    0.074853
    49  H    0.074853
    50  H    0.082122
    51  H    0.094847
    52  H    0.094847
    53  C   -0.020341
    54  C   -0.054498
    55  C   -0.020341
    56  C   -0.054498
    57  H    0.073428
    58  H    0.073428
    59  C   -0.016525
    60  C   -0.059168
    61  C   -0.016525
    62  C   -0.059168
    63  H    0.074853
    64  H    0.074853
    65  C   -0.055977
    66  C   -0.092198
    67  C   -0.055977
    68  C   -0.092198
    69  H    0.082122
    70  H    0.094847
    71  H    0.094847
    72  H    0.082122
 Sum of Mulliken charges =   0.00000
 Mulliken charges with hydrogens summed into heavy atoms:
               1
     1  C    0.000000
     2  C    0.000000
     3  C    0.000000
     4  C    0.000000
     5  C    0.000000
     6  C    0.000000
     7  C    0.000000
     8  C    0.000000
     9  C    0.000000
    10  C    0.000000
    17  C    0.000000
    18  C    0.000000
    19  C    0.000000
    20  C    0.000000
    23  C    0.000000
    24  C    0.000000
    25  C    0.000000
    26  C    0.000000
    29  C    0.000000
    30  C    0.000000
    31  C    0.000000
    32  C    0.000000
    37  C   -0.059168
    38  C   -0.059168
    39  C    0.026144
    40  C    0.026144
    41  C    0.002649
    42  C    0.002649
    43  C    0.058328
    44  C   -0.054498
    45  C    0.058328
    46  C   -0.054498
    53  C    0.053087
    54  C   -0.054498
    55  C    0.053087
    56  C   -0.054498
    59  C    0.058328
    60  C   -0.059168
    61  C    0.058328
    62  C   -0.059168
    65  C    0.026144
    66  C    0.002649
    67  C    0.026144
    68  C    0.002649
         Mulliken charges condensed to fragments:
      1      0.000000
      2      0.000000
 Electronic spatial extent (au):  <R**2>=          11383.6872
 Charge=              0.0000 electrons
 Dipole moment (field-independent basis, Debye):
    X=              0.0000    Y=              0.0000    Z=              0.0000  Tot=              0.0000
 Quadrupole moment (field-independent basis, Debye-Ang):
   XX=           -136.3921   YY=           -110.7480   ZZ=           -109.0115
   XY=              0.0000   XZ=              0.0000   YZ=              0.0000
 Traceless Quadrupole moment (field-independent basis, Debye-Ang):
   XX=            -17.6749   YY=              7.9692   ZZ=              9.7057
   XY=              0.0000   XZ=              0.0000   YZ=              0.0000
 Octapole moment (field-independent basis, Debye-Ang**2):
  XXX=            578.6625  YYY=            469.8641  ZZZ=              0.0000  XYY=            156.6214
  XXY=            192.8875  XXZ=              0.0000  XZZ=            154.1655  YZZ=            154.1655
  YYZ=              0.0000  XYZ=              0.0000
 Hexadecapole moment (field-independent basis, Debye-Ang**3):
 XXXX=          -1791.1085 YYYY=          -2445.6933 ZZZZ=         -10461.4324 XXXY=           -818.3523
 XXXZ=              0.0000 YYYX=           -664.4882 YYYZ=              0.0000 ZZZX=              0.0000
 ZZZY=              0.0000 XXYY=           -750.6955 XXZZ=          -2425.9549 YYZZ=          -2187.2373
 XXYZ=              0.0000 YYXZ=              0.0000 ZZXY=           -218.0229
 N-N= 1.494327112139D+03 E-N=-4.953709175830D+03  KE= 8.433374905080D+02
 Symmetry A'   KE= 4.567052305447D+02
 Symmetry A"   KE= 3.866322599633D+02
 No NMR shielding tensors so no spin-rotation constants.
 Leave Link  601 at Wed Sep 27 16:57:14 2023, MaxMem=  3221225472 cpu:              17.9 elap:               0.6
 (Enter /home/center/opt/aarch64/apps/gaussian16/c01/g16/l122.exe)
 CPIOFr:  IOpCl= 0 IRwI=-1 IRwCP=  731 ICalc=  4 LCPTot=     1419224 Len1MO=     3708034 IndFrg=    19959394
 Restoring MOs from calculation   1 to rwf.
 CPIOFr:  IOpCl= 0 IRwI=-2 IRwCP=  731 ICalc=  0 LCPTot=     1419224 Len1MO=     3708034 IndFrg=     5127258
 Counterpoise corrected energy =   -1694.032363904529
                   BSSE energy =       0.006927890078
              sum of fragments =   -1694.039683044260
           complexation energy =       0.25 kcal/mole (raw)
           complexation energy =       4.59 kcal/mole (corrected)
 Leave Link  122 at Wed Sep 27 16:57:16 2023, MaxMem=  3221225472 cpu:               8.3 elap:               0.4
 (Enter /home/center/opt/aarch64/apps/gaussian16/c01/g16/l9999.exe)

 Test job not archived.
 1\1\GINC-FX0477\SP\RB3LYP\6-311G(d,p)\C44H28\Z40145W\27-Sep-2023\0\\#P
  TEST b3lyp/6-311G** EmpiricalDispersion=GD3 counterpoise=2\\pentacene
 _A1=0_A2=0_A3=45_p2\\0,1\C,0,-0.5039478476,0.5239478476,-3.6612755801\
 C,0,0.5239480325,-0.5039480325,-3.6612755629\C,0,-0.9861248463,1.00612
 48463,-4.9235927708\C,0,1.0061250889,-0.9861250889,-4.9235926697\C,0,-
 0.4963213507,0.5163213507,-6.096356521\C,0,0.5163216812,-0.4963216812,
 -6.0963564796\C,0,-0.9844684311,1.0044684311,-2.4533174875\C,0,-0.5044
 88426,0.524488426,-1.2140288145\C,0,1.0044685359,-0.9844685359,-2.4533
 173917\C,0,0.5244885437,-0.5044885437,-1.2140288362\H,0,-1.7533559667,
 1.7733559667,-4.9232600459\H,0,-1.7521866813,1.7721866813,-2.453928581
 5\H,0,1.7721859268,-1.7521859268,-2.4539284818\H,0,1.7733558421,-1.753
 3558421,-4.9232597785\H,0,0.8905568758,-0.8705568758,-7.0425276922\H,0
 ,-0.8705565046,0.8905565046,-7.042527775\C,0,-0.9848184961,1.004818496
 1,0.0099998782\C,0,-0.5044883957,0.5244883957,1.2340295553\C,0,1.00481
 85643,-0.9848185643,0.0099998696\C,0,0.5244885146,-0.5044885146,1.2340
 295261\H,0,-1.7524699697,1.7724699697,0.0099999205\H,0,1.772468921,-1.
 752468921,0.0099999641\C,0,-0.9844683048,1.0044683048,2.4733171385\C,0
 ,-0.5039477114,0.5239477114,3.681276331\C,0,1.0044684211,-0.9844684211
 ,2.4733170835\C,0,0.5239479079,-0.5039479079,3.6812763217\H,0,-1.75218
 65527,1.7721865527,2.4739285326\H,0,1.7721858092,-1.7521858092,2.47392
 83796\C,0,-0.9861245177,1.0061245177,4.9435920588\C,0,-0.4963209372,0.
 5163209372,6.116356633\C,0,1.0061247659,-0.9861247659,4.9435919377\C,0
 ,0.5163212637,-0.4963212637,6.1163566075\H,0,-1.7533556504,1.773355650
 4,4.9432601504\H,0,-0.8705567426,0.8905567426,7.0625274368\H,0,0.89055
 70967,-0.8705570967,7.0625272142\H,0,1.7733555414,-1.7533555414,4.9432
 599297\C,0,3.4960521524,0.5239478476,-3.6612755801\C,0,4.5239480325,-0
 .5039480325,-3.6612755629\C,0,3.0138751537,1.0061248463,-4.9235927708\
 C,0,5.0061250889,-0.9861250889,-4.9235926697\C,0,3.5036786493,0.516321
 3507,-6.096356521\C,0,4.5163216812,-0.4963216812,-6.0963564796\C,0,3.0
 155315689,1.0044684311,-2.4533174875\C,0,3.495511574,0.524488426,-1.21
 40288145\C,0,5.0044685359,-0.9844685359,-2.4533173917\C,0,4.5244885437
 ,-0.5044885437,-1.2140288362\H,0,2.2466440333,1.7733559667,-4.92326004
 59\H,0,2.2478133187,1.7721866813,-2.4539285815\H,0,5.7721859268,-1.752
 1859268,-2.4539284818\H,0,5.7733558421,-1.7533558421,-4.9232597785\H,0
 ,4.8905568758,-0.8705568758,-7.0425276922\H,0,3.1294434954,0.890556504
 6,-7.042527775\C,0,3.0151815039,1.0048184961,0.0099998782\C,0,3.495511
 6043,0.5244883957,1.2340295553\C,0,5.0048185643,-0.9848185643,0.009999
 8696\C,0,4.5244885146,-0.5044885146,1.2340295261\H,0,2.2475300303,1.77
 24699697,0.0099999205\H,0,5.772468921,-1.752468921,0.0099999641\C,0,3.
 0155316952,1.0044683048,2.4733171385\C,0,3.4960522886,0.5239477114,3.6
 81276331\C,0,5.0044684211,-0.9844684211,2.4733170835\C,0,4.5239479079,
 -0.5039479079,3.6812763217\H,0,2.2478134473,1.7721865527,2.4739285326\
 H,0,5.7721858092,-1.7521858092,2.4739283796\C,0,3.0138754823,1.0061245
 177,4.9435920588\C,0,3.5036790628,0.5163209372,6.116356633\C,0,5.00612
 47659,-0.9861247659,4.9435919377\C,0,4.5163212637,-0.4963212637,6.1163
 566075\H,0,2.2466443496,1.7733556504,4.9432601504\H,0,3.1294432574,0.8
 905567426,7.0625274368\H,0,4.8905570967,-0.8705570967,7.0625272142\H,0
 ,5.7733555414,-1.7533555414,4.9432599297\\Version=Fujitsu-Arm-G16RevC.
 01\State=1-A'\HF=-847.0198415\RMSD=3.181e-09\Dipole=0.0000028,-0.00000
 24,0.\Quadrupole=-9.7924476,-5.3262311,15.1186787,-17.4355383,0.,0.\PG
 =CS [SG(C4H4),X(C40H24)]\\@


 A successful marriage requires falling in love
 many times, always with the same person.
                           -- Mignon McLaughlin
 Job cpu time:       0 days  3 hours 59 minutes 56.8 seconds.
 Elapsed time:       0 days  0 hours  6 minutes 11.1 seconds.
 File lengths (MBytes):  RWF=    718 Int=      0 D2E=      0 Chk=    208 Scr=      1
 Normal termination of Gaussian 16 at Wed Sep 27 16:57:22 2023.
