 Entering Gaussian System, Link 0=g16
 Initial command:
 /home/center/opt/aarch64/apps/gaussian16/c01/g16/l1.exe "/data/tmp/Gtmp/1006981/Gau-48.inp" -scrdir="/data/tmp/Gtmp/1006981/"
 Entering Link 1 = /home/center/opt/aarch64/apps/gaussian16/c01/g16/l1.exe PID=        49.
  
 Copyright (c) 1988-2019, Gaussian, Inc.  All Rights Reserved.
  
 This is part of the Gaussian(R) 16 program.  It is based on
 the Gaussian(R) 09 system (copyright 2009, Gaussian, Inc.),
 the Gaussian(R) 03 system (copyright 2003, Gaussian, Inc.),
 the Gaussian(R) 98 system (copyright 1998, Gaussian, Inc.),
 the Gaussian(R) 94 system (copyright 1995, Gaussian, Inc.),
 the Gaussian 92(TM) system (copyright 1992, Gaussian, Inc.),
 the Gaussian 90(TM) system (copyright 1990, Gaussian, Inc.),
 the Gaussian 88(TM) system (copyright 1988, Gaussian, Inc.),
 the Gaussian 86(TM) system (copyright 1986, Carnegie Mellon
 University), and the Gaussian 82(TM) system (copyright 1983,
 Carnegie Mellon University). Gaussian is a federally registered
 trademark of Gaussian, Inc.
  
 This software contains proprietary and confidential information,
 including trade secrets, belonging to Gaussian, Inc.
  
 This software is provided under written license and may be
 used, copied, transmitted, or stored only in accord with that
 written license.
  
 The following legend is applicable only to US Government
 contracts under FAR:
  
                    RESTRICTED RIGHTS LEGEND
  
 Use, reproduction and disclosure by the US Government is
 subject to restrictions as set forth in subparagraphs (a)
 and (c) of the Commercial Computer Software - Restricted
 Rights clause in FAR 52.227-19.
  
 Gaussian, Inc.
 340 Quinnipiac St., Bldg. 40, Wallingford CT 06492
  
  
 ---------------------------------------------------------------
 Warning -- This program may not be used in any manner that
 competes with the business of Gaussian, Inc. or will provide
 assistance to any competitor of Gaussian, Inc.  The licensee
 of this program is prohibited from giving any competitor of
 Gaussian, Inc. access to this program.  By using this program,
 the user acknowledges that Gaussian, Inc. is engaged in the
 business of creating and licensing software in the field of
 computational chemistry and represents and warrants to the
 licensee that it is not a competitor of Gaussian, Inc. and that
 it will not use this program in any manner prohibited above.
 ---------------------------------------------------------------
  

 Cite this work as:
 Gaussian 16, Revision C.01,
 M. J. Frisch, G. W. Trucks, H. B. Schlegel, G. E. Scuseria, 
 M. A. Robb, J. R. Cheeseman, G. Scalmani, V. Barone, 
 G. A. Petersson, H. Nakatsuji, X. Li, M. Caricato, A. V. Marenich, 
 J. Bloino, B. G. Janesko, R. Gomperts, B. Mennucci, H. P. Hratchian, 
 J. V. Ortiz, A. F. Izmaylov, J. L. Sonnenberg, D. Williams-Young, 
 F. Ding, F. Lipparini, F. Egidi, J. Goings, B. Peng, A. Petrone, 
 T. Henderson, D. Ranasinghe, V. G. Zakrzewski, J. Gao, N. Rega, 
 G. Zheng, W. Liang, M. Hada, M. Ehara, K. Toyota, R. Fukuda, 
 J. Hasegawa, M. Ishida, T. Nakajima, Y. Honda, O. Kitao, H. Nakai, 
 T. Vreven, K. Throssell, J. A. Montgomery, Jr., J. E. Peralta, 
 F. Ogliaro, M. J. Bearpark, J. J. Heyd, E. N. Brothers, K. N. Kudin, 
 V. N. Staroverov, T. A. Keith, R. Kobayashi, J. Normand, 
 K. Raghavachari, A. P. Rendell, J. C. Burant, S. S. Iyengar, 
 J. Tomasi, M. Cossi, J. M. Millam, M. Klene, C. Adamo, R. Cammi, 
 J. W. Ochterski, R. L. Martin, K. Morokuma, O. Farkas, 
 J. B. Foresman, and D. J. Fox, Gaussian, Inc., Wallingford CT, 2019.
 
 ************************************************
 Gaussian 16:  Fujitsu-Arm-G16RevC.01  3-Jul-2019
                   27-Sep-2023 
 ************************************************
 %mem=24GB
 %nproc=42
 Will use up to   42 processors via shared memory.
 -------------------------------------------------------------
 #P TEST b3lyp/6-311G** EmpiricalDispersion=GD3 counterpoise=2
 -------------------------------------------------------------
 1/38=1,62=2,172=1/1;
 2/12=2,17=6,18=5,40=1/2;
 1/38=1,53=2,62=2,63=1/22;
 3/5=4,6=6,7=101,11=2,25=1,30=1,74=-5,124=31/1,2,3;
 4//1;
 5/5=2,38=5/2;
 6/7=2,8=2,9=2,10=2,28=1/1;
 1/53=2,62=2,63=1/22;
 3/5=7,6=11,7=101,11=2,25=1,30=1,74=-5,82=7,124=31/1,2,3;
 4//1;
 5/5=2,38=5/2;
 6/7=2,8=2,9=2,10=2,28=1/1;
 1/53=2,62=2,63=1/22(-4);
 99/5=1,9=1/99;
 Leave Link    1 at Wed Sep 27 16:57:24 2023, MaxMem=  3221225472 cpu:               6.1 elap:               0.2
 (Enter /home/center/opt/aarch64/apps/gaussian16/c01/g16/l101.exe)
 ----------------------------
 pentacene_A1=0_A2=0_A3=45_t1
 ----------------------------
 Symbolic Z-matrix:
 Charge =  0 Multiplicity = 1 in supermolecule
 Charge =  0 Multiplicity = 1 in fragment      1.
 Charge =  0 Multiplicity = 1 in fragment      2.
 C(Fragment=1)        -0.50395   0.52395  -3.66128 
 C(Fragment=1)         0.52395  -0.50395  -3.66128 
 C(Fragment=1)        -0.98612   1.00612  -4.92359 
 C(Fragment=1)         1.00613  -0.98613  -4.92359 
 C(Fragment=1)        -0.49632   0.51632  -6.09636 
 C(Fragment=1)         0.51632  -0.49632  -6.09636 
 C(Fragment=1)        -0.98447   1.00447  -2.45332 
 C(Fragment=1)        -0.50449   0.52449  -1.21403 
 C(Fragment=1)         1.00447  -0.98447  -2.45332 
 C(Fragment=1)         0.52449  -0.50449  -1.21403 
 H(Fragment=1)        -1.75336   1.77336  -4.92326 
 H(Fragment=1)        -1.75219   1.77219  -2.45393 
 H(Fragment=1)         1.77219  -1.75219  -2.45393 
 H(Fragment=1)         1.77336  -1.75336  -4.92326 
 H(Fragment=1)         0.89056  -0.87056  -7.04253 
 H(Fragment=1)        -0.87056   0.89056  -7.04253 
 C(Fragment=1)        -0.98482   1.00482   0.01 
 C(Fragment=1)        -0.50449   0.52449   1.23403 
 C(Fragment=1)         1.00482  -0.98482   0.01 
 C(Fragment=1)         0.52449  -0.50449   1.23403 
 H(Fragment=1)        -1.75247   1.77247   0.01 
 H(Fragment=1)         1.77247  -1.75247   0.01 
 C(Fragment=1)        -0.98447   1.00447   2.47332 
 C(Fragment=1)        -0.50395   0.52395   3.68128 
 C(Fragment=1)         1.00447  -0.98447   2.47332 
 C(Fragment=1)         0.52395  -0.50395   3.68128 
 H(Fragment=1)        -1.75219   1.77219   2.47393 
 H(Fragment=1)         1.77219  -1.75219   2.47393 
 C(Fragment=1)        -0.98612   1.00612   4.94359 
 C(Fragment=1)        -0.49632   0.51632   6.11636 
 C(Fragment=1)         1.00612  -0.98612   4.94359 
 C(Fragment=1)         0.51632  -0.49632   6.11636 
 H(Fragment=1)        -1.75336   1.77336   4.94326 
 H(Fragment=1)        -0.87056   0.89056   7.06253 
 H(Fragment=1)         0.89056  -0.87056   7.06253 
 H(Fragment=1)         1.77336  -1.75336   4.94326 
 C(Fragment=2)         4.77395   3.52395  -3.66128 
 C(Fragment=2)         3.74605   2.49605  -3.66128 
 C(Fragment=2)         5.25612   4.00612  -4.92359 
 C(Fragment=2)         3.26387   2.01387  -4.92359 
 C(Fragment=2)         4.76632   3.51632  -6.09636 
 C(Fragment=2)         3.75368   2.50368  -6.09636 
 C(Fragment=2)         5.25447   4.00447  -2.45332 
 C(Fragment=2)         4.77449   3.52449  -1.21403 
 C(Fragment=2)         3.26553   2.01553  -2.45332 
 C(Fragment=2)         3.74551   2.49551  -1.21403 
 H(Fragment=2)         6.02336   4.77336  -4.92326 
 H(Fragment=2)         6.02219   4.77219  -2.45393 
 H(Fragment=2)         2.49781   1.24781  -2.45393 
 H(Fragment=2)         2.49664   1.24664  -4.92326 
 H(Fragment=2)         3.37944   2.12944  -7.04253 
 H(Fragment=2)         5.14056   3.89056  -7.04253 
 C(Fragment=2)         5.25482   4.00482   0.01 
 C(Fragment=2)         4.77449   3.52449   1.23403 
 C(Fragment=2)         3.26518   2.01518   0.01 
 C(Fragment=2)         3.74551   2.49551   1.23403 
 H(Fragment=2)         6.02247   4.77247   0.01 
 H(Fragment=2)         2.49753   1.24753   0.01 
 C(Fragment=2)         5.25447   4.00447   2.47332 
 C(Fragment=2)         4.77395   3.52395   3.68128 
 C(Fragment=2)         3.26553   2.01553   2.47332 
 C(Fragment=2)         3.74605   2.49605   3.68128 
 H(Fragment=2)         6.02219   4.77219   2.47393 
 H(Fragment=2)         2.49781   1.24781   2.47393 
 C(Fragment=2)         5.25612   4.00612   4.94359 
 C(Fragment=2)         4.76632   3.51632   6.11636 
 C(Fragment=2)         3.26388   2.01388   4.94359 
 C(Fragment=2)         3.75368   2.50368   6.11636 
 H(Fragment=2)         6.02336   4.77336   4.94326 
 H(Fragment=2)         5.14056   3.89056   7.06253 
 H(Fragment=2)         3.37944   2.12944   7.06253 
 H(Fragment=2)         2.49664   1.24664   4.94326 
 
 ITRead=  0  0  0  0  0  0  0  0  0  0  0  0  0  0  0  0  0  0  0  0
 ITRead=  0  0  0  0  0  0  0  0  0  0  0  0  0  0  0  0  0  0  0  0
 ITRead=  0  0  0  0  0  0  0  0  0  0  0  0  0  0  0  0  0  0  0  0
 ITRead=  0  0  0  0  0  0  0  0  0  0  0  0
 MicOpt= -1 -1 -1 -1 -1 -1 -1 -1 -1 -1 -1 -1 -1 -1 -1 -1 -1 -1 -1 -1
 MicOpt= -1 -1 -1 -1 -1 -1 -1 -1 -1 -1 -1 -1 -1 -1 -1 -1 -1 -1 -1 -1
 MicOpt= -1 -1 -1 -1 -1 -1 -1 -1 -1 -1 -1 -1 -1 -1 -1 -1 -1 -1 -1 -1
 MicOpt= -1 -1 -1 -1 -1 -1 -1 -1 -1 -1 -1 -1
 NAtoms=     72 NQM=       72 NQMF=       0 NMMI=      0 NMMIF=      0
                NMic=       0 NMicF=      0.
                    Isotopes and Nuclear Properties:
 (Nuclear quadrupole moments (NQMom) in fm**2, nuclear magnetic moments (NMagM)
  in nuclear magnetons)

  Atom         1           2           3           4           5           6           7           8           9          10
 IAtWgt=          12          12          12          12          12          12          12          12          12          12
 AtmWgt=  12.0000000  12.0000000  12.0000000  12.0000000  12.0000000  12.0000000  12.0000000  12.0000000  12.0000000  12.0000000
 NucSpn=           0           0           0           0           0           0           0           0           0           0
 AtZEff=   0.0000000   0.0000000   0.0000000   0.0000000   0.0000000   0.0000000   0.0000000   0.0000000   0.0000000   0.0000000
 NQMom=    0.0000000   0.0000000   0.0000000   0.0000000   0.0000000   0.0000000   0.0000000   0.0000000   0.0000000   0.0000000
 NMagM=    0.0000000   0.0000000   0.0000000   0.0000000   0.0000000   0.0000000   0.0000000   0.0000000   0.0000000   0.0000000
 AtZNuc=   6.0000000   6.0000000   6.0000000   6.0000000   6.0000000   6.0000000   6.0000000   6.0000000   6.0000000   6.0000000

  Atom        11          12          13          14          15          16          17          18          19          20
 IAtWgt=           1           1           1           1           1           1          12          12          12          12
 AtmWgt=   1.0078250   1.0078250   1.0078250   1.0078250   1.0078250   1.0078250  12.0000000  12.0000000  12.0000000  12.0000000
 NucSpn=           1           1           1           1           1           1           0           0           0           0
 AtZEff=   0.0000000   0.0000000   0.0000000   0.0000000   0.0000000   0.0000000   0.0000000   0.0000000   0.0000000   0.0000000
 NQMom=    0.0000000   0.0000000   0.0000000   0.0000000   0.0000000   0.0000000   0.0000000   0.0000000   0.0000000   0.0000000
 NMagM=    2.7928460   2.7928460   2.7928460   2.7928460   2.7928460   2.7928460   0.0000000   0.0000000   0.0000000   0.0000000
 AtZNuc=   1.0000000   1.0000000   1.0000000   1.0000000   1.0000000   1.0000000   6.0000000   6.0000000   6.0000000   6.0000000

  Atom        21          22          23          24          25          26          27          28          29          30
 IAtWgt=           1           1          12          12          12          12           1           1          12          12
 AtmWgt=   1.0078250   1.0078250  12.0000000  12.0000000  12.0000000  12.0000000   1.0078250   1.0078250  12.0000000  12.0000000
 NucSpn=           1           1           0           0           0           0           1           1           0           0
 AtZEff=   0.0000000   0.0000000   0.0000000   0.0000000   0.0000000   0.0000000   0.0000000   0.0000000   0.0000000   0.0000000
 NQMom=    0.0000000   0.0000000   0.0000000   0.0000000   0.0000000   0.0000000   0.0000000   0.0000000   0.0000000   0.0000000
 NMagM=    2.7928460   2.7928460   0.0000000   0.0000000   0.0000000   0.0000000   2.7928460   2.7928460   0.0000000   0.0000000
 AtZNuc=   1.0000000   1.0000000   6.0000000   6.0000000   6.0000000   6.0000000   1.0000000   1.0000000   6.0000000   6.0000000

  Atom        31          32          33          34          35          36          37          38          39          40
 IAtWgt=          12          12           1           1           1           1          12          12          12          12
 AtmWgt=  12.0000000  12.0000000   1.0078250   1.0078250   1.0078250   1.0078250  12.0000000  12.0000000  12.0000000  12.0000000
 NucSpn=           0           0           1           1           1           1           0           0           0           0
 AtZEff=   0.0000000   0.0000000   0.0000000   0.0000000   0.0000000   0.0000000   0.0000000   0.0000000   0.0000000   0.0000000
 NQMom=    0.0000000   0.0000000   0.0000000   0.0000000   0.0000000   0.0000000   0.0000000   0.0000000   0.0000000   0.0000000
 NMagM=    0.0000000   0.0000000   2.7928460   2.7928460   2.7928460   2.7928460   0.0000000   0.0000000   0.0000000   0.0000000
 AtZNuc=   6.0000000   6.0000000   1.0000000   1.0000000   1.0000000   1.0000000   6.0000000   6.0000000   6.0000000   6.0000000

  Atom        41          42          43          44          45          46          47          48          49          50
 IAtWgt=          12          12          12          12          12          12           1           1           1           1
 AtmWgt=  12.0000000  12.0000000  12.0000000  12.0000000  12.0000000  12.0000000   1.0078250   1.0078250   1.0078250   1.0078250
 NucSpn=           0           0           0           0           0           0           1           1           1           1
 AtZEff=   0.0000000   0.0000000   0.0000000   0.0000000   0.0000000   0.0000000   0.0000000   0.0000000   0.0000000   0.0000000
 NQMom=    0.0000000   0.0000000   0.0000000   0.0000000   0.0000000   0.0000000   0.0000000   0.0000000   0.0000000   0.0000000
 NMagM=    0.0000000   0.0000000   0.0000000   0.0000000   0.0000000   0.0000000   2.7928460   2.7928460   2.7928460   2.7928460
 AtZNuc=   6.0000000   6.0000000   6.0000000   6.0000000   6.0000000   6.0000000   1.0000000   1.0000000   1.0000000   1.0000000

  Atom        51          52          53          54          55          56          57          58          59          60
 IAtWgt=           1           1          12          12          12          12           1           1          12          12
 AtmWgt=   1.0078250   1.0078250  12.0000000  12.0000000  12.0000000  12.0000000   1.0078250   1.0078250  12.0000000  12.0000000
 NucSpn=           1           1           0           0           0           0           1           1           0           0
 AtZEff=   0.0000000   0.0000000   0.0000000   0.0000000   0.0000000   0.0000000   0.0000000   0.0000000   0.0000000   0.0000000
 NQMom=    0.0000000   0.0000000   0.0000000   0.0000000   0.0000000   0.0000000   0.0000000   0.0000000   0.0000000   0.0000000
 NMagM=    2.7928460   2.7928460   0.0000000   0.0000000   0.0000000   0.0000000   2.7928460   2.7928460   0.0000000   0.0000000
 AtZNuc=   1.0000000   1.0000000   6.0000000   6.0000000   6.0000000   6.0000000   1.0000000   1.0000000   6.0000000   6.0000000

  Atom        61          62          63          64          65          66          67          68          69          70
 IAtWgt=          12          12           1           1          12          12          12          12           1           1
 AtmWgt=  12.0000000  12.0000000   1.0078250   1.0078250  12.0000000  12.0000000  12.0000000  12.0000000   1.0078250   1.0078250
 NucSpn=           0           0           1           1           0           0           0           0           1           1
 AtZEff=   0.0000000   0.0000000   0.0000000   0.0000000   0.0000000   0.0000000   0.0000000   0.0000000   0.0000000   0.0000000
 NQMom=    0.0000000   0.0000000   0.0000000   0.0000000   0.0000000   0.0000000   0.0000000   0.0000000   0.0000000   0.0000000
 NMagM=    0.0000000   0.0000000   2.7928460   2.7928460   0.0000000   0.0000000   0.0000000   0.0000000   2.7928460   2.7928460
 AtZNuc=   6.0000000   6.0000000   1.0000000   1.0000000   6.0000000   6.0000000   6.0000000   6.0000000   1.0000000   1.0000000

  Atom        71          72
 IAtWgt=           1           1
 AtmWgt=   1.0078250   1.0078250
 NucSpn=           1           1
 AtZEff=   0.0000000   0.0000000
 NQMom=    0.0000000   0.0000000
 NMagM=    2.7928460   2.7928460
 AtZNuc=   1.0000000   1.0000000
 Leave Link  101 at Wed Sep 27 16:57:26 2023, MaxMem=  3221225472 cpu:               3.3 elap:               0.1
 (Enter /home/center/opt/aarch64/apps/gaussian16/c01/g16/l202.exe)
 Stoichiometry    C44H28
 Framework group  CS[SG(C4H4),X(C40H24)]
 Deg. of freedom   109
 Full point group                 CS      NOp   2
 Largest Abelian subgroup         CS      NOp   2
 Largest concise Abelian subgroup CS      NOp   2
                         Standard orientation:                         
 ---------------------------------------------------------------------
 Center     Atomic      Atomic             Coordinates (Angstroms)
 Number     Number       Type             X           Y           Z
 ---------------------------------------------------------------------
      1          6           0        1.168774   -2.563262    3.671276
      2          6           0       -0.284890   -2.563262    3.671276
      3          6           0        1.850675   -2.563262    4.933593
      4          6           0       -0.966792   -2.563262    4.933593
      5          6           0        1.157988   -2.563262    6.106357
      6          6           0       -0.274105   -2.563262    6.106357
      7          6           0        1.848333   -2.563262    2.463318
      8          6           0        1.169538   -2.563262    1.224029
      9          6           0       -0.964449   -2.563262    2.463317
     10          6           0       -0.285655   -2.563262    1.224029
     11          1           0        2.935704   -2.563262    4.933260
     12          1           0        2.934050   -2.563262    2.463929
     13          1           0       -2.050165   -2.563262    2.463929
     14          1           0       -2.051820   -2.563262    4.933260
     15          1           0       -0.803354   -2.563262    7.052528
     16          1           0        1.687237   -2.563262    7.052528
     17          6           0        1.848828   -2.563262    0.000000
     18          6           0        1.169538   -2.563262   -1.224029
     19          6           0       -0.964944   -2.563262    0.000000
     20          6           0       -0.285655   -2.563262   -1.224029
     21          1           0        2.934451   -2.563262    0.000000
     22          1           0       -2.050566   -2.563262    0.000000
     23          6           0        1.848333   -2.563262   -2.463318
     24          6           0        1.168774   -2.563262   -3.671276
     25          6           0       -0.964449   -2.563262   -2.463317
     26          6           0       -0.284890   -2.563262   -3.671276
     27          1           0        2.934050   -2.563262   -2.463929
     28          1           0       -2.050165   -2.563262   -2.463929
     29          6           0        1.850675   -2.563262   -4.933593
     30          6           0        1.157988   -2.563262   -6.106357
     31          6           0       -0.966792   -2.563262   -4.933593
     32          6           0       -0.274105   -2.563262   -6.106357
     33          1           0        2.935704   -2.563262   -4.933260
     34          1           0        1.687237   -2.563262   -7.052528
     35          1           0       -0.803354   -2.563262   -7.052528
     36          1           0       -2.051820   -2.563262   -4.933260
     37          6           0       -0.441942    3.290094    3.671276
     38          6           0       -0.441942    1.836430    3.671276
     39          6           0       -0.441942    3.971995    4.933593
     40          6           0       -0.441942    1.154529    4.933593
     41          6           0       -0.441942    3.279309    6.106357
     42          6           0       -0.441942    1.847215    6.106357
     43          6           0       -0.441942    3.969653    2.463318
     44          6           0       -0.441942    3.290859    1.224029
     45          6           0       -0.441942    1.156871    2.463317
     46          6           0       -0.441942    1.835665    1.224029
     47          1           0       -0.441942    5.057024    4.933260
     48          1           0       -0.441942    5.055370    2.463929
     49          1           0       -0.441942    0.071155    2.463929
     50          1           0       -0.441942    0.069500    4.933260
     51          1           0       -0.441942    1.317967    7.052528
     52          1           0       -0.441942    3.808557    7.052528
     53          6           0       -0.441942    3.970148    0.000000
     54          6           0       -0.441942    3.290859   -1.224029
     55          6           0       -0.441942    1.156376    0.000000
     56          6           0       -0.441942    1.835665   -1.224029
     57          1           0       -0.441942    5.055771    0.000000
     58          1           0       -0.441942    0.070755    0.000000
     59          6           0       -0.441942    3.969653   -2.463318
     60          6           0       -0.441942    3.290094   -3.671276
     61          6           0       -0.441942    1.156871   -2.463317
     62          6           0       -0.441942    1.836430   -3.671276
     63          1           0       -0.441942    5.055370   -2.463929
     64          1           0       -0.441942    0.071155   -2.463929
     65          6           0       -0.441942    3.971995   -4.933593
     66          6           0       -0.441942    3.279309   -6.106357
     67          6           0       -0.441942    1.154529   -4.933593
     68          6           0       -0.441942    1.847215   -6.106357
     69          1           0       -0.441942    5.057024   -4.933260
     70          1           0       -0.441942    3.808557   -7.052528
     71          1           0       -0.441942    1.317967   -7.052528
     72          1           0       -0.441942    0.069500   -4.933260
 ---------------------------------------------------------------------
 Rotational constants (GHZ):           0.1116343           0.0563744           0.0397065
 Leave Link  202 at Wed Sep 27 16:57:28 2023, MaxMem=  3221225472 cpu:               0.6 elap:               0.0
 (Enter /home/center/opt/aarch64/apps/gaussian16/c01/g16/l122.exe)
 Counterpoise: doing full-system calculation.
 Leave Link  122 at Wed Sep 27 16:57:30 2023, MaxMem=  3221225472 cpu:               0.2 elap:               0.0
 (Enter /home/center/opt/aarch64/apps/gaussian16/c01/g16/l301.exe)
 Standard basis: 6-311G(d,p) (5D, 7F)
 Ernie: Thresh=  0.10000D-02 Tol=  0.10000D-05 Strict=F.
 There are   528 symmetry adapted cartesian basis functions of A'  symmetry.
 There are   476 symmetry adapted cartesian basis functions of A"  symmetry.
 There are   504 symmetry adapted basis functions of A'  symmetry.
 There are   456 symmetry adapted basis functions of A"  symmetry.
   960 basis functions,  1632 primitive gaussians,  1004 cartesian basis functions
   146 alpha electrons      146 beta electrons
       nuclear repulsion energy      4652.3624861284 Hartrees.
 IExCor=  402 DFT=T Ex+Corr=B3LYP ExCW=0 ScaHFX=  0.200000
 ScaDFX=  0.800000  0.720000  1.000000  0.810000 ScalE2=  1.000000  1.000000
 IRadAn=      5 IRanWt=     -1 IRanGd=            0 ICorTp=0 IEmpDi=131
 NAtoms=   72 NActive=   72 NUniq=   40 SFac= 3.24D+00 NAtFMM=   60 NAOKFM=T Big=F
 Integral buffers will be    131072 words long.
 Raffenetti 2 integral format.
 Two-electron integral symmetry is turned on.
 R6Disp:  Grimme-D3 Dispersion energy=       -0.0833342167 Hartrees.
 Nuclear repulsion after empirical dispersion term =     4652.2791519117 Hartrees.
 Leave Link  301 at Wed Sep 27 16:57:33 2023, MaxMem=  3221225472 cpu:               2.0 elap:               0.1
 (Enter /home/center/opt/aarch64/apps/gaussian16/c01/g16/l302.exe)
 NPDir=0 NMtPBC=     1 NCelOv=     1 NCel=       1 NClECP=     1 NCelD=      1
         NCelK=      1 NCelE2=     1 NClLst=     1 CellRange=     0.0.
 One-electron integrals computed using PRISM.
 One-electron integral symmetry used in STVInt
 NBasis=   960 RedAO= T EigKep=  3.74D-05  NBF=   504   456
 NBsUse=   960 1.00D-06 EigRej= -1.00D+00 NBFU=   504   456
 Precomputing XC quadrature grid using
 IXCGrd= 4 IRadAn=           5 IRanWt=          -1 IRanGd=           0 AccXCQ= 0.00D+00.
 Generated NRdTot=       0 NPtTot=           0 NUsed=           0 NTot=          32
 NSgBfM=   991   991   991   991   991 MxSgAt=    72 MxSgA2=    72.
 Leave Link  302 at Wed Sep 27 16:57:37 2023, MaxMem=  3221225472 cpu:              64.4 elap:               2.0
 (Enter /home/center/opt/aarch64/apps/gaussian16/c01/g16/l303.exe)
 DipDrv:  MaxL=1.
 Leave Link  303 at Wed Sep 27 16:57:40 2023, MaxMem=  3221225472 cpu:              13.8 elap:               0.4
 (Enter /home/center/opt/aarch64/apps/gaussian16/c01/g16/l401.exe)
 ExpMin= 1.03D-01 ExpMax= 4.56D+03 ExpMxC= 6.82D+02 IAcc=3 IRadAn=         5 AccDes= 0.00D+00
 Harris functional with IExCor=  402 and IRadAn=       5 diagonalized for initial guess.
 HarFok:  IExCor=  402 AccDes= 0.00D+00 IRadAn=         5 IDoV= 1 UseB2=F ITyADJ=14
 ICtDFT=  3500011 ScaDFX=  1.000000  1.000000  1.000000  1.000000
 FoFCou: FMM=F IPFlag=           0 FMFlag=      100000 FMFlg1=        2000
         NFxFlg=           0 DoJE=T BraDBF=F KetDBF=T FulRan=T
         wScrn=  0.000000 ICntrl=       500 IOpCl=  0 I1Cent=   200000004 NGrid=           0
         NMat0=    1 NMatS0=      1 NMatT0=    0 NMatD0=    1 NMtDS0=    0 NMtDT0=    0
 Petite list used in FoFCou.
 Harris En= -1694.13914772891    
 JPrj=0 DoOrth=F DoCkMO=F.
 Initial guess orbital symmetries:
       Occupied  (A") (A') (A") (A') (A") (A') (A') (A") (A") (A')
                 (A") (A') (A") (A') (A") (A') (A") (A') (A') (A")
                 (A') (A") (A') (A") (A') (A') (A') (A') (A") (A')
                 (A") (A') (A") (A') (A") (A') (A") (A') (A") (A')
                 (A") (A') (A') (A") (A') (A') (A") (A") (A') (A')
                 (A") (A") (A') (A') (A') (A') (A") (A") (A') (A')
                 (A") (A") (A") (A") (A') (A') (A') (A') (A") (A")
                 (A") (A") (A') (A') (A") (A") (A') (A') (A') (A')
                 (A') (A') (A") (A") (A") (A") (A") (A") (A') (A')
                 (A') (A') (A") (A") (A') (A') (A') (A') (A") (A")
                 (A') (A') (A") (A") (A") (A") (A') (A') (A') (A')
                 (A") (A") (A') (A') (A") (A") (A') (A') (A") (A")
                 (A") (A") (A') (A') (A') (A') (A") (A") (A') (A')
                 (A") (A") (A') (A') (A") (A") (A') (A') (A') (A')
                 (A") (A") (A") (A") (A') (A')
       Virtual   (A') (A') (A") (A") (A") (A") (A') (A') (A') (A')
                 (A") (A") (A') (A') (A") (A") (A') (A") (A') (A')
                 (A') (A') (A") (A') (A') (A") (A") (A') (A") (A")
                 (A') (A") (A') (A") (A') (A") (A') (A") (A') (A")
                 (A') (A') (A") (A') (A") (A') (A") (A') (A') (A')
                 (A') (A") (A') (A") (A') (A') (A") (A") (A') (A')
                 (A") (A") (A") (A") (A') (A') (A") (A') (A") (A")
                 (A') (A") (A') (A') (A") (A') (A") (A") (A') (A")
                 (A') (A') (A') (A") (A') (A") (A') (A') (A") (A')
                 (A') (A") (A") (A") (A') (A") (A') (A") (A') (A")
                 (A') (A') (A") (A") (A') (A") (A') (A") (A') (A')
                 (A') (A") (A') (A') (A") (A') (A") (A') (A") (A')
                 (A') (A") (A') (A") (A") (A') (A") (A") (A') (A')
                 (A") (A') (A") (A") (A') (A") (A') (A") (A') (A')
                 (A") (A') (A") (A") (A') (A') (A') (A') (A") (A')
                 (A') (A") (A') (A") (A") (A') (A') (A") (A") (A")
                 (A') (A') (A") (A') (A") (A') (A') (A") (A") (A')
                 (A') (A") (A') (A") (A') (A') (A") (A') (A") (A')
                 (A") (A") (A') (A') (A") (A") (A') (A') (A") (A')
                 (A') (A") (A') (A") (A") (A') (A') (A") (A') (A")
                 (A") (A') (A') (A") (A') (A') (A") (A') (A") (A')
                 (A") (A') (A') (A") (A") (A') (A") (A") (A") (A')
                 (A") (A') (A") (A') (A') (A") (A') (A") (A') (A")
                 (A') (A') (A') (A') (A") (A") (A') (A") (A') (A")
                 (A") (A') (A") (A') (A') (A") (A") (A') (A') (A")
                 (A') (A") (A") (A') (A") (A') (A') (A") (A') (A")
                 (A') (A') (A") (A") (A') (A") (A") (A") (A') (A')
                 (A") (A") (A') (A') (A") (A') (A") (A") (A') (A')
                 (A') (A') (A") (A") (A") (A') (A') (A") (A') (A')
                 (A') (A") (A") (A") (A') (A") (A") (A") (A") (A')
                 (A") (A') (A') (A') (A') (A') (A') (A") (A") (A')
                 (A") (A") (A") (A') (A") (A') (A') (A") (A') (A')
                 (A') (A") (A") (A') (A") (A') (A') (A") (A") (A')
                 (A") (A") (A') (A") (A') (A") (A') (A') (A") (A')
                 (A") (A') (A") (A') (A') (A") (A') (A") (A") (A')
                 (A') (A") (A') (A') (A") (A') (A') (A") (A') (A")
                 (A') (A') (A') (A") (A') (A") (A") (A") (A") (A")
                 (A") (A') (A') (A") (A") (A") (A') (A') (A') (A')
                 (A") (A') (A") (A') (A') (A') (A') (A") (A') (A")
                 (A") (A') (A') (A') (A") (A') (A") (A") (A") (A')
                 (A") (A') (A") (A') (A") (A') (A") (A') (A") (A')
                 (A') (A') (A") (A') (A") (A') (A") (A') (A") (A')
                 (A') (A') (A') (A") (A") (A') (A") (A') (A") (A')
                 (A") (A") (A') (A") (A") (A') (A") (A") (A') (A")
                 (A") (A') (A') (A") (A') (A') (A") (A") (A') (A")
                 (A') (A') (A') (A") (A") (A') (A") (A') (A") (A')
                 (A") (A') (A') (A") (A") (A') (A") (A') (A') (A")
                 (A") (A') (A") (A') (A") (A') (A") (A') (A") (A')
                 (A") (A') (A') (A') (A") (A') (A") (A") (A") (A")
                 (A') (A") (A') (A") (A") (A") (A") (A') (A') (A')
                 (A") (A') (A') (A") (A") (A') (A') (A') (A") (A")
                 (A') (A') (A') (A") (A') (A") (A") (A') (A") (A')
                 (A") (A') (A') (A") (A") (A") (A') (A') (A') (A")
                 (A") (A') (A') (A") (A") (A') (A') (A") (A") (A')
                 (A") (A") (A') (A') (A') (A") (A") (A") (A') (A")
                 (A') (A") (A') (A") (A') (A") (A') (A") (A') (A')
                 (A") (A') (A") (A') (A') (A") (A') (A") (A') (A")
                 (A") (A") (A') (A') (A") (A') (A') (A") (A") (A')
                 (A') (A') (A") (A') (A') (A") (A') (A') (A") (A")
                 (A') (A") (A') (A') (A") (A') (A') (A") (A") (A')
                 (A") (A') (A") (A') (A") (A") (A') (A") (A') (A')
                 (A") (A') (A") (A') (A') (A") (A') (A') (A") (A")
                 (A") (A') (A") (A') (A') (A") (A") (A') (A") (A')
                 (A') (A') (A") (A') (A') (A') (A") (A") (A") (A')
                 (A") (A") (A') (A") (A') (A") (A') (A") (A") (A')
                 (A') (A') (A') (A") (A') (A') (A") (A') (A") (A')
                 (A') (A") (A") (A') (A") (A") (A') (A') (A') (A")
                 (A") (A') (A") (A') (A") (A') (A") (A") (A') (A')
                 (A") (A') (A') (A") (A') (A") (A') (A") (A") (A")
                 (A') (A') (A") (A') (A') (A") (A') (A") (A") (A')
                 (A") (A') (A") (A') (A") (A') (A') (A") (A') (A")
                 (A") (A") (A') (A') (A") (A') (A') (A") (A') (A")
                 (A') (A") (A') (A') (A") (A") (A') (A') (A') (A")
                 (A') (A") (A") (A') (A") (A') (A') (A") (A') (A")
                 (A') (A") (A') (A") (A') (A') (A") (A') (A') (A')
                 (A") (A') (A") (A') (A") (A") (A') (A') (A") (A")
                 (A") (A') (A") (A') (A") (A") (A') (A") (A') (A")
                 (A') (A') (A") (A") (A') (A') (A') (A') (A") (A")
                 (A") (A") (A') (A') (A") (A') (A") (A') (A') (A')
                 (A") (A") (A") (A") (A') (A') (A') (A') (A") (A")
                 (A') (A') (A") (A") (A') (A') (A") (A') (A") (A')
                 (A') (A") (A') (A")
 The electronic state of the initial guess is 1-A'.
 Leave Link  401 at Wed Sep 27 16:57:45 2023, MaxMem=  3221225472 cpu:             106.6 elap:               2.8
 (Enter /home/center/opt/aarch64/apps/gaussian16/c01/g16/l502.exe)
 Integral symmetry usage will be decided dynamically.
 Closed shell SCF:
 Using DIIS extrapolation, IDIIS=  1040.
 NGot=  3221225472 LenX=  3219153746 LenY=  3218144726
 Requested convergence on RMS density matrix=1.00D-08 within 128 cycles.
 Requested convergence on MAX density matrix=1.00D-06.
 Requested convergence on             energy=1.00D-06.
 No special actions if energy rises.
 Fock matrices will be formed incrementally for  20 cycles.
 Integral accuracy reduced to 1.0D-05 until final iterations.

 Cycle   1  Pass 0  IDiag  1:
 FoFJK:  IHMeth= 1 ICntrl=       0 DoSepK=F KAlg= 0 I1Cent=           0 FoldK=F
 IRaf= 560000000 NMat=       1 IRICut=       1 DoRegI=T DoRafI=F ISym2E= 1 IDoP0=0 IntGTp=1.
 FoFCou: FMM=F IPFlag=           0 FMFlag=      100000 FMFlg1=        2000
         NFxFlg=           0 DoJE=F BraDBF=F KetDBF=F FulRan=T
         wScrn=  0.000000 ICntrl=         0 IOpCl=  0 I1Cent=           0 NGrid=           0
         NMat0=    1 NMatS0=      1 NMatT0=    0 NMatD0=    1 NMtDS0=    0 NMtDT0=    0
 Petite list used in FoFCou.
 E= -1693.17651614628    
 DIIS: error= 4.46D-02 at cycle   1 NSaved=   1.
 NSaved= 1 IEnMin= 1 EnMin= -1693.17651614628     IErMin= 1 ErrMin= 4.46D-02
 ErrMax= 4.46D-02  0.00D+00 EMaxC= 1.00D-01 BMatC= 8.98D-01 BMatP= 8.98D-01
 IDIUse=3 WtCom= 5.54D-01 WtEn= 4.46D-01
 Coeff-Com:  0.100D+01
 Coeff-En:   0.100D+01
 Coeff:      0.100D+01
 Gap=     0.062 Goal=   None    Shift=    0.000
 GapD=    0.062 DampG=0.500 DampE=0.500 DampFc=0.2500 IDamp=-1.
 Damping current iteration by 2.50D-01
 RMSDP=1.73D-03 MaxDP=8.40D-02              OVMax= 1.55D-01

 Cycle   2  Pass 0  IDiag  1:
 RMSU=  4.20D-04    CP:  9.82D-01
 E= -1693.48458812272     Delta-E=       -0.308071976440 Rises=F Damp=T
 DIIS: error= 2.60D-02 at cycle   2 NSaved=   2.
 NSaved= 2 IEnMin= 2 EnMin= -1693.48458812272     IErMin= 2 ErrMin= 2.60D-02
 ErrMax= 2.60D-02  0.00D+00 EMaxC= 1.00D-01 BMatC= 2.99D-01 BMatP= 8.98D-01
 IDIUse=3 WtCom= 7.40D-01 WtEn= 2.60D-01
 Coeff-Com: -0.121D+01 0.221D+01
 Coeff-En:   0.000D+00 0.100D+01
 Coeff:     -0.898D+00 0.190D+01
 Gap=     0.061 Goal=   None    Shift=    0.000
 RMSDP=7.33D-04 MaxDP=3.37D-02 DE=-3.08D-01 OVMax= 1.02D-01

 Cycle   3  Pass 0  IDiag  1:
 RMSU=  4.61D-04    CP:  9.58D-01  2.31D+00
 E= -1694.04839436919     Delta-E=       -0.563806246463 Rises=F Damp=F
 DIIS: error= 4.75D-03 at cycle   3 NSaved=   3.
 NSaved= 3 IEnMin= 3 EnMin= -1694.04839436919     IErMin= 3 ErrMin= 4.75D-03
 ErrMax= 4.75D-03  0.00D+00 EMaxC= 1.00D-01 BMatC= 1.18D-02 BMatP= 2.99D-01
 IDIUse=3 WtCom= 9.53D-01 WtEn= 4.75D-02
 Coeff-Com: -0.257D+00 0.526D+00 0.731D+00
 Coeff-En:   0.000D+00 0.000D+00 0.100D+01
 Coeff:     -0.245D+00 0.501D+00 0.744D+00
 Gap=     0.067 Goal=   None    Shift=    0.000
 RMSDP=2.49D-04 MaxDP=1.49D-02 DE=-5.64D-01 OVMax= 1.15D-01

 Cycle   4  Pass 0  IDiag  1:
 RMSU=  2.18D-04    CP:  9.59D-01  2.21D+00  7.55D-01
 E= -1694.04263856445     Delta-E=        0.005755804735 Rises=F Damp=F
 DIIS: error= 7.39D-03 at cycle   4 NSaved=   4.
 NSaved= 4 IEnMin= 3 EnMin= -1694.04839436919     IErMin= 3 ErrMin= 4.75D-03
 ErrMax= 7.39D-03  0.00D+00 EMaxC= 1.00D-01 BMatC= 1.51D-02 BMatP= 1.18D-02
 IDIUse=3 WtCom= 1.04D-01 WtEn= 8.96D-01
 Coeff-Com: -0.422D-01 0.115D+00 0.532D+00 0.395D+00
 Coeff-En:   0.000D+00 0.000D+00 0.577D+00 0.423D+00
 Coeff:     -0.440D-02 0.120D-01 0.572D+00 0.420D+00
 Gap=     0.063 Goal=   None    Shift=    0.000
 RMSDP=1.51D-04 MaxDP=1.03D-02 DE= 5.76D-03 OVMax= 9.26D-02

 Cycle   5  Pass 0  IDiag  1:
 RMSU=  7.91D-05    CP:  9.59D-01  2.20D+00  8.28D-01  4.32D-01
 E= -1694.05994103238     Delta-E=       -0.017302467927 Rises=F Damp=F
 DIIS: error= 2.15D-03 at cycle   5 NSaved=   5.
 NSaved= 5 IEnMin= 5 EnMin= -1694.05994103238     IErMin= 5 ErrMin= 2.15D-03
 ErrMax= 2.15D-03  0.00D+00 EMaxC= 1.00D-01 BMatC= 1.00D-03 BMatP= 1.18D-02
 IDIUse=3 WtCom= 9.79D-01 WtEn= 2.15D-02
 Coeff-Com: -0.158D-01 0.342D-01 0.252D+00 0.232D+00 0.497D+00
 Coeff-En:   0.000D+00 0.000D+00 0.000D+00 0.201D-02 0.998D+00
 Coeff:     -0.154D-01 0.335D-01 0.247D+00 0.227D+00 0.508D+00
 Gap=     0.064 Goal=   None    Shift=    0.000
 RMSDP=4.65D-05 MaxDP=3.30D-03 DE=-1.73D-02 OVMax= 2.99D-02

 Cycle   6  Pass 0  IDiag  1:
 RMSU=  2.61D-05    CP:  9.59D-01  2.22D+00  8.34D-01  5.01D-01  5.70D-01
 E= -1694.06075399616     Delta-E=       -0.000812963785 Rises=F Damp=F
 DIIS: error= 1.17D-03 at cycle   6 NSaved=   6.
 NSaved= 6 IEnMin= 6 EnMin= -1694.06075399616     IErMin= 6 ErrMin= 1.17D-03
 ErrMax= 1.17D-03  0.00D+00 EMaxC= 1.00D-01 BMatC= 2.67D-04 BMatP= 1.00D-03
 IDIUse=3 WtCom= 9.88D-01 WtEn= 1.17D-02
 Coeff-Com: -0.522D-02 0.803D-02 0.106D+00 0.110D+00 0.371D+00 0.410D+00
 Coeff-En:   0.000D+00 0.000D+00 0.000D+00 0.000D+00 0.238D+00 0.762D+00
 Coeff:     -0.516D-02 0.793D-02 0.105D+00 0.108D+00 0.369D+00 0.414D+00
 Gap=     0.063 Goal=   None    Shift=    0.000
 RMSDP=2.10D-05 MaxDP=1.56D-03 DE=-8.13D-04 OVMax= 1.26D-02

 Cycle   7  Pass 0  IDiag  1:
 RMSU=  8.76D-06    CP:  9.58D-01  2.23D+00  8.37D-01  4.83D-01  6.33D-01
                    CP:  3.13D-01
 E= -1694.06105631792     Delta-E=       -0.000302321751 Rises=F Damp=F
 DIIS: error= 3.29D-04 at cycle   7 NSaved=   7.
 NSaved= 7 IEnMin= 7 EnMin= -1694.06105631792     IErMin= 7 ErrMin= 3.29D-04
 ErrMax= 3.29D-04  0.00D+00 EMaxC= 1.00D-01 BMatC= 2.07D-05 BMatP= 2.67D-04
 IDIUse=3 WtCom= 9.97D-01 WtEn= 3.29D-03
 Coeff-Com: -0.163D-02 0.185D-02 0.554D-01 0.580D-01 0.215D+00 0.284D+00
 Coeff-Com:  0.387D+00
 Coeff-En:   0.000D+00 0.000D+00 0.000D+00 0.000D+00 0.000D+00 0.345D-01
 Coeff-En:   0.965D+00
 Coeff:     -0.163D-02 0.185D-02 0.552D-01 0.578D-01 0.214D+00 0.284D+00
 Coeff:      0.389D+00
 Gap=     0.063 Goal=   None    Shift=    0.000
 RMSDP=5.69D-06 MaxDP=3.12D-04 DE=-3.02D-04 OVMax= 2.39D-03

 Initial convergence to 1.0D-05 achieved.  Increase integral accuracy.
 Cycle   8  Pass 1  IDiag  1:
 E= -1694.06062940382     Delta-E=        0.000426914093 Rises=F Damp=F
 DIIS: error= 1.08D-03 at cycle   1 NSaved=   1.
 NSaved= 1 IEnMin= 1 EnMin= -1694.06062940382     IErMin= 1 ErrMin= 1.08D-03
 ErrMax= 1.08D-03  0.00D+00 EMaxC= 1.00D-01 BMatC= 5.22D-05 BMatP= 5.22D-05
 IDIUse=3 WtCom= 9.89D-01 WtEn= 1.08D-02
 Coeff-Com:  0.100D+01
 Coeff-En:   0.100D+01
 Coeff:      0.100D+01
 Gap=     0.063 Goal=   None    Shift=    0.000
 RMSDP=5.69D-06 MaxDP=3.12D-04 DE= 4.27D-04 OVMax= 2.31D-03

 Cycle   9  Pass 1  IDiag  1:
 RMSU=  4.08D-04    CP:  9.96D-01
 E= -1694.06067712049     Delta-E=       -0.000047716662 Rises=F Damp=F
 DIIS: error= 1.30D-04 at cycle   2 NSaved=   2.
 NSaved= 2 IEnMin= 2 EnMin= -1694.06067712049     IErMin= 2 ErrMin= 1.30D-04
 ErrMax= 1.30D-04  0.00D+00 EMaxC= 1.00D-01 BMatC= 3.75D-06 BMatP= 5.22D-05
 IDIUse=3 WtCom= 9.99D-01 WtEn= 1.30D-03
 Coeff-Com:  0.842D-01 0.916D+00
 Coeff-En:   0.000D+00 0.100D+01
 Coeff:      0.841D-01 0.916D+00
 Gap=     0.063 Goal=   None    Shift=    0.000
 RMSDP=8.00D-06 MaxDP=4.42D-04 DE=-4.77D-05 OVMax= 3.70D-03

 Cycle  10  Pass 1  IDiag  1:
 RMSU=  7.17D-06    CP:  9.96D-01  1.01D+00
 E= -1694.06065589938     Delta-E=        0.000021221101 Rises=F Damp=F
 DIIS: error= 3.50D-04 at cycle   3 NSaved=   3.
 NSaved= 3 IEnMin= 2 EnMin= -1694.06067712049     IErMin= 2 ErrMin= 1.30D-04
 ErrMax= 3.50D-04  0.00D+00 EMaxC= 1.00D-01 BMatC= 2.06D-05 BMatP= 3.75D-06
 IDIUse=3 WtCom= 3.48D-01 WtEn= 6.52D-01
 Coeff-Com: -0.185D-02 0.705D+00 0.297D+00
 Coeff-En:   0.000D+00 0.784D+00 0.216D+00
 Coeff:     -0.645D-03 0.757D+00 0.244D+00
 Gap=     0.063 Goal=   None    Shift=    0.000
 RMSDP=4.36D-06 MaxDP=2.61D-04 DE= 2.12D-05 OVMax= 2.39D-03

 Cycle  11  Pass 1  IDiag  1:
 RMSU=  1.12D-06    CP:  9.96D-01  1.01D+00  4.17D-01
 E= -1694.06068069739     Delta-E=       -0.000024798001 Rises=F Damp=F
 DIIS: error= 4.52D-05 at cycle   4 NSaved=   4.
 NSaved= 4 IEnMin= 4 EnMin= -1694.06068069739     IErMin= 4 ErrMin= 4.52D-05
 ErrMax= 4.52D-05  0.00D+00 EMaxC= 1.00D-01 BMatC= 7.82D-07 BMatP= 3.75D-06
 IDIUse=1 WtCom= 1.00D+00 WtEn= 0.00D+00
 Coeff-Com: -0.386D-02 0.454D+00 0.118D+00 0.431D+00
 Coeff:     -0.386D-02 0.454D+00 0.118D+00 0.431D+00
 Gap=     0.063 Goal=   None    Shift=    0.000
 RMSDP=8.94D-07 MaxDP=5.30D-05 DE=-2.48D-05 OVMax= 2.97D-04

 Cycle  12  Pass 1  IDiag  1:
 RMSU=  4.25D-07    CP:  9.96D-01  1.01D+00  3.11D-01  8.40D-01
 E= -1694.06068154869     Delta-E=       -0.000000851303 Rises=F Damp=F
 DIIS: error= 5.82D-06 at cycle   5 NSaved=   5.
 NSaved= 5 IEnMin= 5 EnMin= -1694.06068154869     IErMin= 5 ErrMin= 5.82D-06
 ErrMax= 5.82D-06  0.00D+00 EMaxC= 1.00D-01 BMatC= 4.02D-09 BMatP= 7.82D-07
 IDIUse=1 WtCom= 1.00D+00 WtEn= 0.00D+00
 Coeff-Com: -0.224D-02 0.256D+00 0.651D-01 0.255D+00 0.427D+00
 Coeff:     -0.224D-02 0.256D+00 0.651D-01 0.255D+00 0.427D+00
 Gap=     0.063 Goal=   None    Shift=    0.000
 RMSDP=9.50D-08 MaxDP=3.85D-06 DE=-8.51D-07 OVMax= 3.15D-05

 Cycle  13  Pass 1  IDiag  1:
 RMSU=  8.79D-08    CP:  9.96D-01  1.01D+00  3.13D-01  8.49D-01  9.25D-01
 E= -1694.06068155328     Delta-E=       -0.000000004596 Rises=F Damp=F
 DIIS: error= 2.12D-06 at cycle   6 NSaved=   6.
 NSaved= 6 IEnMin= 6 EnMin= -1694.06068155328     IErMin= 6 ErrMin= 2.12D-06
 ErrMax= 2.12D-06  0.00D+00 EMaxC= 1.00D-01 BMatC= 5.96D-10 BMatP= 4.02D-09
 IDIUse=1 WtCom= 1.00D+00 WtEn= 0.00D+00
 Coeff-Com: -0.849D-03 0.943D-01 0.236D-01 0.976D-01 0.280D+00 0.506D+00
 Coeff:     -0.849D-03 0.943D-01 0.236D-01 0.976D-01 0.280D+00 0.506D+00
 Gap=     0.063 Goal=   None    Shift=    0.000
 RMSDP=2.66D-08 MaxDP=1.37D-06 DE=-4.60D-09 OVMax= 1.07D-05

 Cycle  14  Pass 1  IDiag  1:
 RMSU=  1.91D-08    CP:  9.96D-01  1.01D+00  3.13D-01  8.46D-01  9.46D-01
                    CP:  8.36D-01
 E= -1694.06068155394     Delta-E=       -0.000000000658 Rises=F Damp=F
 DIIS: error= 1.85D-07 at cycle   7 NSaved=   7.
 NSaved= 7 IEnMin= 7 EnMin= -1694.06068155394     IErMin= 7 ErrMin= 1.85D-07
 ErrMax= 1.85D-07  0.00D+00 EMaxC= 1.00D-01 BMatC= 2.07D-11 BMatP= 5.96D-10
 IDIUse=1 WtCom= 1.00D+00 WtEn= 0.00D+00
 Coeff-Com: -0.166D-03 0.178D-01 0.400D-02 0.204D-01 0.823D-01 0.210D+00
 Coeff-Com:  0.666D+00
 Coeff:     -0.166D-03 0.178D-01 0.400D-02 0.204D-01 0.823D-01 0.210D+00
 Coeff:      0.666D+00
 Gap=     0.063 Goal=   None    Shift=    0.000
 RMSDP=7.97D-09 MaxDP=3.33D-07 DE=-6.58D-10 OVMax= 2.00D-06

 SCF Done:  E(RB3LYP) =  -1694.06068155     A.U. after   14 cycles
            NFock= 14  Conv=0.80D-08     -V/T= 2.0044
 KE= 1.686707252426D+03 PE=-1.323510461130D+04 EE= 5.202057525406D+03
 Leave Link  502 at Wed Sep 27 16:59:27 2023, MaxMem=  3221225472 cpu:            3576.4 elap:              99.4
 (Enter /home/center/opt/aarch64/apps/gaussian16/c01/g16/l601.exe)
 Copying SCF densities to generalized density rwf, IOpCl= 0 IROHF=0.

 **********************************************************************

            Population analysis using the SCF Density.

 **********************************************************************

 Orbital symmetries:
       Occupied  (A') (A") (A') (A") (A") (A') (A") (A') (A') (A')
                 (A") (A') (A") (A') (A") (A') (A") (A') (A") (A')
                 (A") (A') (A") (A') (A") (A') (A') (A") (A') (A")
                 (A") (A') (A") (A') (A') (A") (A') (A") (A') (A')
                 (A") (A') (A") (A') (A') (A") (A') (A") (A') (A')
                 (A") (A") (A') (A') (A") (A') (A') (A") (A') (A')
                 (A") (A") (A") (A") (A') (A') (A') (A') (A") (A")
                 (A') (A") (A") (A") (A') (A') (A") (A') (A') (A')
                 (A') (A") (A") (A') (A") (A") (A') (A") (A') (A')
                 (A") (A') (A') (A") (A") (A') (A") (A') (A") (A')
                 (A") (A') (A') (A') (A') (A') (A") (A") (A") (A')
                 (A') (A') (A") (A") (A") (A") (A") (A') (A") (A')
                 (A') (A') (A') (A") (A") (A') (A') (A") (A") (A')
                 (A") (A") (A') (A') (A") (A') (A") (A') (A') (A')
                 (A") (A") (A") (A") (A') (A')
       Virtual   (A') (A') (A") (A") (A") (A") (A') (A') (A') (A")
                 (A') (A') (A") (A') (A") (A') (A') (A') (A") (A")
                 (A') (A') (A") (A") (A') (A") (A') (A") (A") (A')
                 (A") (A') (A") (A') (A') (A") (A") (A') (A") (A')
                 (A') (A') (A') (A") (A") (A') (A") (A') (A") (A")
                 (A') (A') (A') (A') (A') (A') (A') (A") (A") (A")
                 (A') (A") (A") (A") (A') (A') (A") (A") (A') (A")
                 (A') (A') (A") (A') (A') (A") (A") (A') (A") (A')
                 (A") (A') (A') (A') (A") (A') (A') (A") (A') (A")
                 (A") (A") (A') (A') (A') (A') (A") (A") (A') (A")
                 (A') (A") (A") (A') (A") (A') (A') (A") (A") (A")
                 (A') (A') (A") (A') (A") (A') (A") (A') (A') (A')
                 (A") (A") (A') (A') (A') (A') (A') (A") (A') (A")
                 (A") (A') (A") (A') (A') (A") (A') (A") (A") (A')
                 (A') (A') (A") (A') (A") (A") (A") (A') (A') (A")
                 (A") (A") (A') (A') (A") (A') (A") (A') (A') (A")
                 (A') (A") (A') (A') (A") (A") (A") (A') (A') (A")
                 (A') (A') (A") (A') (A") (A') (A') (A") (A") (A')
                 (A") (A") (A') (A') (A") (A') (A") (A') (A") (A")
                 (A') (A') (A") (A') (A") (A') (A") (A") (A') (A')
                 (A") (A') (A') (A") (A') (A') (A") (A') (A") (A')
                 (A") (A') (A") (A") (A') (A') (A") (A") (A') (A')
                 (A") (A") (A') (A") (A') (A") (A') (A") (A') (A")
                 (A') (A') (A') (A") (A') (A") (A') (A") (A') (A")
                 (A') (A") (A') (A") (A') (A") (A") (A') (A") (A')
                 (A') (A") (A') (A") (A") (A') (A") (A') (A") (A')
                 (A') (A") (A') (A") (A') (A") (A') (A") (A') (A")
                 (A') (A") (A") (A') (A') (A") (A') (A") (A") (A')
                 (A") (A') (A") (A') (A') (A") (A") (A') (A') (A')
                 (A") (A") (A") (A') (A') (A') (A") (A') (A") (A")
                 (A") (A') (A") (A') (A") (A') (A') (A") (A') (A')
                 (A") (A') (A') (A") (A") (A") (A') (A") (A') (A")
                 (A') (A') (A') (A") (A") (A') (A') (A") (A") (A")
                 (A') (A") (A') (A") (A') (A') (A") (A") (A') (A')
                 (A") (A') (A') (A') (A") (A") (A') (A') (A") (A')
                 (A") (A") (A') (A") (A') (A') (A') (A') (A') (A")
                 (A') (A") (A') (A") (A") (A') (A") (A") (A") (A')
                 (A") (A") (A') (A") (A') (A") (A') (A") (A") (A')
                 (A') (A') (A") (A') (A') (A") (A") (A') (A') (A')
                 (A') (A") (A') (A") (A') (A") (A') (A") (A') (A")
                 (A") (A') (A") (A') (A") (A') (A') (A") (A') (A")
                 (A') (A') (A") (A') (A") (A') (A") (A') (A') (A")
                 (A") (A') (A') (A') (A") (A') (A") (A') (A") (A")
                 (A') (A") (A') (A") (A") (A") (A') (A') (A") (A')
                 (A") (A') (A") (A") (A') (A") (A') (A") (A') (A')
                 (A") (A') (A") (A') (A") (A') (A") (A") (A') (A')
                 (A") (A') (A") (A') (A") (A') (A") (A') (A') (A")
                 (A') (A") (A") (A') (A") (A") (A') (A') (A") (A')
                 (A') (A") (A') (A") (A') (A') (A") (A") (A") (A')
                 (A") (A") (A") (A') (A") (A") (A") (A') (A') (A")
                 (A') (A") (A') (A') (A') (A") (A') (A') (A") (A')
                 (A") (A') (A") (A') (A") (A') (A') (A") (A") (A')
                 (A") (A") (A') (A") (A') (A') (A") (A') (A") (A")
                 (A') (A") (A') (A") (A') (A") (A") (A') (A') (A')
                 (A") (A') (A") (A') (A") (A') (A") (A") (A') (A")
                 (A') (A") (A") (A') (A') (A") (A') (A") (A') (A')
                 (A") (A') (A') (A") (A") (A') (A") (A') (A') (A")
                 (A') (A") (A') (A") (A') (A') (A') (A') (A") (A")
                 (A") (A") (A') (A') (A') (A") (A") (A') (A") (A')
                 (A") (A") (A') (A") (A") (A') (A') (A') (A') (A')
                 (A") (A") (A') (A') (A") (A') (A") (A') (A") (A')
                 (A") (A') (A') (A") (A') (A') (A') (A") (A") (A')
                 (A") (A') (A") (A') (A") (A') (A") (A') (A") (A")
                 (A") (A') (A") (A') (A') (A') (A') (A") (A') (A")
                 (A') (A") (A") (A") (A') (A') (A") (A') (A") (A')
                 (A") (A') (A') (A") (A') (A") (A') (A') (A") (A")
                 (A') (A') (A") (A') (A") (A") (A') (A') (A") (A')
                 (A') (A") (A") (A') (A") (A') (A") (A") (A') (A')
                 (A') (A') (A") (A") (A') (A") (A') (A") (A") (A")
                 (A') (A') (A") (A') (A') (A') (A") (A") (A") (A')
                 (A') (A") (A') (A") (A') (A") (A') (A") (A') (A")
                 (A") (A") (A') (A") (A') (A') (A') (A") (A') (A")
                 (A') (A") (A') (A') (A") (A') (A") (A') (A') (A")
                 (A') (A") (A') (A") (A") (A') (A') (A") (A") (A')
                 (A') (A") (A') (A") (A') (A') (A") (A') (A') (A")
                 (A') (A') (A") (A") (A') (A") (A') (A') (A") (A")
                 (A") (A') (A") (A") (A') (A') (A") (A") (A') (A")
                 (A') (A') (A") (A") (A') (A') (A') (A') (A") (A")
                 (A") (A") (A') (A') (A") (A') (A") (A') (A') (A')
                 (A") (A") (A") (A") (A') (A') (A") (A') (A') (A")
                 (A') (A") (A') (A') (A") (A") (A') (A') (A") (A')
                 (A') (A") (A') (A")
 The electronic state is 1-A'.
 Alpha  occ. eigenvalues --  -10.19719 -10.19719 -10.19666 -10.19665 -10.19616
 Alpha  occ. eigenvalues --  -10.19616 -10.19544 -10.19544 -10.18751 -10.18699
 Alpha  occ. eigenvalues --  -10.18682 -10.18682 -10.18656 -10.18656 -10.18581
 Alpha  occ. eigenvalues --  -10.18581 -10.18518 -10.18517 -10.18504 -10.18504
 Alpha  occ. eigenvalues --  -10.18422 -10.18422 -10.17952 -10.17952 -10.17909
 Alpha  occ. eigenvalues --  -10.17909 -10.17849 -10.17848 -10.17772 -10.17772
 Alpha  occ. eigenvalues --  -10.17051 -10.17051 -10.16975 -10.16975 -10.16957
 Alpha  occ. eigenvalues --  -10.16954 -10.16953 -10.16869 -10.16869 -10.16801
 Alpha  occ. eigenvalues --  -10.16764 -10.16764 -10.16693 -10.16693  -0.90141
 Alpha  occ. eigenvalues --   -0.88638  -0.88350  -0.86902  -0.86308  -0.84599
 Alpha  occ. eigenvalues --   -0.83165  -0.81472  -0.80577  -0.79264  -0.79045
 Alpha  occ. eigenvalues --   -0.78808  -0.77582  -0.77327  -0.76711  -0.75016
 Alpha  occ. eigenvalues --   -0.74999  -0.73617  -0.73310  -0.71932  -0.69922
 Alpha  occ. eigenvalues --   -0.68229  -0.68068  -0.66393  -0.63451  -0.63076
 Alpha  occ. eigenvalues --   -0.61811  -0.61767  -0.61433  -0.60650  -0.60093
 Alpha  occ. eigenvalues --   -0.59987  -0.58965  -0.58387  -0.58323  -0.56744
 Alpha  occ. eigenvalues --   -0.53415  -0.53256  -0.52979  -0.51771  -0.51601
 Alpha  occ. eigenvalues --   -0.51356  -0.50318  -0.49213  -0.48680  -0.47821
 Alpha  occ. eigenvalues --   -0.47600  -0.46771  -0.46233  -0.46223  -0.46190
 Alpha  occ. eigenvalues --   -0.45408  -0.44783  -0.44627  -0.44524  -0.43837
 Alpha  occ. eigenvalues --   -0.43219  -0.43010  -0.42482  -0.42335  -0.42248
 Alpha  occ. eigenvalues --   -0.41908  -0.41650  -0.41430  -0.41092  -0.40823
 Alpha  occ. eigenvalues --   -0.40598  -0.40431  -0.40274  -0.39709  -0.39452
 Alpha  occ. eigenvalues --   -0.38861  -0.38651  -0.37513  -0.37297  -0.37012
 Alpha  occ. eigenvalues --   -0.36211  -0.35820  -0.35441  -0.34812  -0.34463
 Alpha  occ. eigenvalues --   -0.34407  -0.33736  -0.33539  -0.33132  -0.32856
 Alpha  occ. eigenvalues --   -0.32828  -0.32027  -0.31424  -0.30615  -0.30272
 Alpha  occ. eigenvalues --   -0.29143  -0.28695  -0.27513  -0.27346  -0.25664
 Alpha  occ. eigenvalues --   -0.25200  -0.23453  -0.23340  -0.21624  -0.18649
 Alpha  occ. eigenvalues --   -0.16875
 Alpha virt. eigenvalues --   -0.10550  -0.08799  -0.05247  -0.03573  -0.03531
 Alpha virt. eigenvalues --   -0.01831  -0.00957   0.00791   0.01290   0.01460
 Alpha virt. eigenvalues --    0.02110   0.02970   0.03307   0.03839   0.03980
 Alpha virt. eigenvalues --    0.04004   0.04765   0.05541   0.05760   0.05987
 Alpha virt. eigenvalues --    0.06117   0.06742   0.07270   0.07540   0.07795
 Alpha virt. eigenvalues --    0.08161   0.08764   0.09209   0.09587   0.09623
 Alpha virt. eigenvalues --    0.10415   0.10983   0.11098   0.11100   0.11624
 Alpha virt. eigenvalues --    0.12548   0.12952   0.13261   0.13384   0.13961
 Alpha virt. eigenvalues --    0.14274   0.15056   0.16047   0.16096   0.17282
 Alpha virt. eigenvalues --    0.17777   0.18234   0.18322   0.19019   0.19744
 Alpha virt. eigenvalues --    0.19930   0.20422   0.22217   0.22261   0.23738
 Alpha virt. eigenvalues --    0.23892   0.24137   0.24180   0.24954   0.25378
 Alpha virt. eigenvalues --    0.25391   0.26309   0.26851   0.26956   0.27288
 Alpha virt. eigenvalues --    0.27567   0.27845   0.28405   0.28680   0.28815
 Alpha virt. eigenvalues --    0.29091   0.29398   0.29593   0.30115   0.30196
 Alpha virt. eigenvalues --    0.30243   0.30563   0.31304   0.31762   0.32215
 Alpha virt. eigenvalues --    0.32397   0.33904   0.34211   0.34655   0.34752
 Alpha virt. eigenvalues --    0.34793   0.35237   0.35546   0.35821   0.36144
 Alpha virt. eigenvalues --    0.36532   0.37273   0.37509   0.37705   0.37768
 Alpha virt. eigenvalues --    0.38479   0.38515   0.38612   0.38753   0.38973
 Alpha virt. eigenvalues --    0.39134   0.39361   0.39720   0.39745   0.40080
 Alpha virt. eigenvalues --    0.40157   0.40370   0.40472   0.41320   0.41398
 Alpha virt. eigenvalues --    0.41804   0.42206   0.42325   0.42414   0.42621
 Alpha virt. eigenvalues --    0.42641   0.43066   0.43148   0.43200   0.43456
 Alpha virt. eigenvalues --    0.43646   0.44252   0.44623   0.44788   0.45146
 Alpha virt. eigenvalues --    0.45192   0.45438   0.45651   0.45773   0.45837
 Alpha virt. eigenvalues --    0.46046   0.46096   0.46228   0.46599   0.46809
 Alpha virt. eigenvalues --    0.46946   0.47124   0.47604   0.48121   0.48199
 Alpha virt. eigenvalues --    0.48763   0.49079   0.49182   0.49185   0.49452
 Alpha virt. eigenvalues --    0.50342   0.50388   0.50426   0.50604   0.50735
 Alpha virt. eigenvalues --    0.50936   0.51399   0.51769   0.52276   0.52421
 Alpha virt. eigenvalues --    0.53137   0.53622   0.53653   0.54316   0.54763
 Alpha virt. eigenvalues --    0.55091   0.56272   0.56953   0.57387   0.57415
 Alpha virt. eigenvalues --    0.57714   0.57771   0.57852   0.58215   0.58350
 Alpha virt. eigenvalues --    0.58953   0.59240   0.59370   0.59577   0.60246
 Alpha virt. eigenvalues --    0.60600   0.61172   0.61216   0.61472   0.61792
 Alpha virt. eigenvalues --    0.61945   0.62033   0.62188   0.62795   0.62906
 Alpha virt. eigenvalues --    0.63261   0.63461   0.63677   0.63697   0.64037
 Alpha virt. eigenvalues --    0.64262   0.64533   0.64555   0.65503   0.66049
 Alpha virt. eigenvalues --    0.66485   0.66656   0.67277   0.67297   0.67543
 Alpha virt. eigenvalues --    0.68156   0.68568   0.69468   0.69966   0.70434
 Alpha virt. eigenvalues --    0.71039   0.71160   0.71646   0.72039   0.72591
 Alpha virt. eigenvalues --    0.72952   0.73072   0.73710   0.74091   0.74228
 Alpha virt. eigenvalues --    0.74918   0.75373   0.76124   0.76211   0.76262
 Alpha virt. eigenvalues --    0.76586   0.76928   0.77827   0.77998   0.78345
 Alpha virt. eigenvalues --    0.78385   0.79092   0.79682   0.79818   0.80386
 Alpha virt. eigenvalues --    0.80418   0.80905   0.81941   0.81990   0.82152
 Alpha virt. eigenvalues --    0.82603   0.83352   0.83586   0.84137   0.84230
 Alpha virt. eigenvalues --    0.85089   0.85558   0.86043   0.86114   0.86639
 Alpha virt. eigenvalues --    0.87412   0.87623   0.88618   0.89649   0.90003
 Alpha virt. eigenvalues --    0.90269   0.90300   0.90856   0.91148   0.92049
 Alpha virt. eigenvalues --    0.92982   0.93522   0.93792   0.94408   0.94829
 Alpha virt. eigenvalues --    0.95059   0.95118   0.95515   0.96273   0.96651
 Alpha virt. eigenvalues --    0.97219   0.97348   0.98237   0.98368   0.98912
 Alpha virt. eigenvalues --    0.98970   0.99516   1.00235   1.01364   1.01808
 Alpha virt. eigenvalues --    1.02018   1.02048   1.02307   1.02898   1.02978
 Alpha virt. eigenvalues --    1.03532   1.03574   1.04595   1.04634   1.04779
 Alpha virt. eigenvalues --    1.05095   1.05355   1.05896   1.06107   1.06329
 Alpha virt. eigenvalues --    1.06436   1.06585   1.06732   1.06846   1.07295
 Alpha virt. eigenvalues --    1.07568   1.07902   1.08390   1.08967   1.09343
 Alpha virt. eigenvalues --    1.09558   1.09979   1.11005   1.11151   1.11230
 Alpha virt. eigenvalues --    1.11725   1.11962   1.12561   1.13016   1.13136
 Alpha virt. eigenvalues --    1.13822   1.14135   1.14347   1.14664   1.14989
 Alpha virt. eigenvalues --    1.15571   1.16236   1.16261   1.17075   1.17913
 Alpha virt. eigenvalues --    1.18294   1.18543   1.19785   1.19844   1.21401
 Alpha virt. eigenvalues --    1.22177   1.22826   1.22987   1.23966   1.25110
 Alpha virt. eigenvalues --    1.25579   1.26746   1.27725   1.27926   1.30320
 Alpha virt. eigenvalues --    1.30518   1.30875   1.32191   1.32265   1.33424
 Alpha virt. eigenvalues --    1.34201   1.35359   1.35789   1.36574   1.37313
 Alpha virt. eigenvalues --    1.38805   1.39499   1.39858   1.40165   1.40807
 Alpha virt. eigenvalues --    1.40878   1.41553   1.41647   1.41849   1.42244
 Alpha virt. eigenvalues --    1.43148   1.43390   1.44401   1.44516   1.44798
 Alpha virt. eigenvalues --    1.45098   1.46067   1.46852   1.47269   1.47447
 Alpha virt. eigenvalues --    1.47504   1.48090   1.48456   1.48980   1.49339
 Alpha virt. eigenvalues --    1.49584   1.49643   1.49770   1.50408   1.50936
 Alpha virt. eigenvalues --    1.50944   1.51690   1.51913   1.52529   1.52591
 Alpha virt. eigenvalues --    1.52680   1.53968   1.54098   1.54458   1.54924
 Alpha virt. eigenvalues --    1.55141   1.55315   1.55316   1.55493   1.56038
 Alpha virt. eigenvalues --    1.56350   1.57719   1.58164   1.58370   1.58916
 Alpha virt. eigenvalues --    1.59293   1.59997   1.60257   1.61238   1.61332
 Alpha virt. eigenvalues --    1.61942   1.62181   1.62731   1.62856   1.64830
 Alpha virt. eigenvalues --    1.65382   1.65744   1.66051   1.66424   1.67823
 Alpha virt. eigenvalues --    1.68942   1.69170   1.69822   1.70723   1.70758
 Alpha virt. eigenvalues --    1.70866   1.70969   1.71748   1.72101   1.72264
 Alpha virt. eigenvalues --    1.73596   1.73608   1.73769   1.73863   1.74085
 Alpha virt. eigenvalues --    1.74360   1.74450   1.74801   1.76100   1.76895
 Alpha virt. eigenvalues --    1.77015   1.78829   1.78923   1.78999   1.79975
 Alpha virt. eigenvalues --    1.80007   1.80271   1.80937   1.81299   1.82074
 Alpha virt. eigenvalues --    1.82217   1.82621   1.82864   1.83106   1.83221
 Alpha virt. eigenvalues --    1.84150   1.84671   1.84799   1.84854   1.85145
 Alpha virt. eigenvalues --    1.85517   1.86564   1.87022   1.87696   1.87747
 Alpha virt. eigenvalues --    1.88007   1.88162   1.88617   1.88649   1.88818
 Alpha virt. eigenvalues --    1.89195   1.89478   1.89655   1.90760   1.91177
 Alpha virt. eigenvalues --    1.91204   1.91453   1.91853   1.92220   1.92909
 Alpha virt. eigenvalues --    1.92925   1.93237   1.93886   1.93929   1.94162
 Alpha virt. eigenvalues --    1.94615   1.94774   1.95120   1.95510   1.95699
 Alpha virt. eigenvalues --    1.96140   1.96749   1.97035   1.97197   1.98433
 Alpha virt. eigenvalues --    1.98671   1.99597   2.00842   2.01053   2.01356
 Alpha virt. eigenvalues --    2.01364   2.01427   2.02500   2.02941   2.04660
 Alpha virt. eigenvalues --    2.05434   2.07276   2.07875   2.08666   2.08917
 Alpha virt. eigenvalues --    2.09283   2.10233   2.10640   2.11200   2.11631
 Alpha virt. eigenvalues --    2.12096   2.12704   2.13391   2.13935   2.15157
 Alpha virt. eigenvalues --    2.15278   2.16391   2.16532   2.16909   2.18130
 Alpha virt. eigenvalues --    2.18824   2.19569   2.20261   2.21899   2.22337
 Alpha virt. eigenvalues --    2.22470   2.23214   2.23462   2.23671   2.23921
 Alpha virt. eigenvalues --    2.24138   2.25567   2.25752   2.26583   2.26680
 Alpha virt. eigenvalues --    2.27025   2.27635   2.27990   2.28339   2.28449
 Alpha virt. eigenvalues --    2.28769   2.30002   2.30500   2.31134   2.32758
 Alpha virt. eigenvalues --    2.34351   2.35081   2.35711   2.36917   2.38679
 Alpha virt. eigenvalues --    2.38699   2.40108   2.40270   2.41565   2.41755
 Alpha virt. eigenvalues --    2.42387   2.43192   2.44951   2.45152   2.45298
 Alpha virt. eigenvalues --    2.45541   2.45661   2.46777   2.47193   2.49712
 Alpha virt. eigenvalues --    2.50370   2.52876   2.53186   2.53785   2.54117
 Alpha virt. eigenvalues --    2.54725   2.55114   2.56482   2.56996   2.57022
 Alpha virt. eigenvalues --    2.58119   2.58355   2.58976   2.59283   2.59695
 Alpha virt. eigenvalues --    2.59994   2.60770   2.60937   2.60994   2.61371
 Alpha virt. eigenvalues --    2.61656   2.61940   2.62056   2.62644   2.62907
 Alpha virt. eigenvalues --    2.63278   2.63772   2.64254   2.64610   2.64775
 Alpha virt. eigenvalues --    2.65571   2.66110   2.66217   2.66503   2.66831
 Alpha virt. eigenvalues --    2.66881   2.67898   2.68466   2.68810   2.69045
 Alpha virt. eigenvalues --    2.69234   2.69335   2.69502   2.69792   2.69890
 Alpha virt. eigenvalues --    2.69994   2.70414   2.70692   2.71212   2.71224
 Alpha virt. eigenvalues --    2.71941   2.72658   2.73333   2.73349   2.73483
 Alpha virt. eigenvalues --    2.74066   2.74375   2.74753   2.75009   2.75662
 Alpha virt. eigenvalues --    2.76537   2.76764   2.77181   2.77201   2.77684
 Alpha virt. eigenvalues --    2.78498   2.78809   2.79473   2.79537   2.79673
 Alpha virt. eigenvalues --    2.80212   2.80641   2.81177   2.82040   2.82182
 Alpha virt. eigenvalues --    2.83491   2.84048   2.84134   2.85181   2.85676
 Alpha virt. eigenvalues --    2.86368   2.86407   2.87263   2.88118   2.88573
 Alpha virt. eigenvalues --    2.88955   2.90003   2.90416   2.91055   2.91964
 Alpha virt. eigenvalues --    2.93044   2.93051   2.93176   2.94155   2.94756
 Alpha virt. eigenvalues --    2.95964   2.95984   2.96749   2.98539   2.98614
 Alpha virt. eigenvalues --    2.98644   2.99768   3.00651   3.02744   3.02985
 Alpha virt. eigenvalues --    3.05271   3.06322   3.07508   3.08865   3.08957
 Alpha virt. eigenvalues --    3.09141   3.09490   3.15557   3.15973   3.16603
 Alpha virt. eigenvalues --    3.17223   3.17677   3.18071   3.19479   3.20547
 Alpha virt. eigenvalues --    3.21404   3.21785   3.23662   3.25193   3.29527
 Alpha virt. eigenvalues --    3.30063   3.30589   3.30941   3.31672   3.33271
 Alpha virt. eigenvalues --    3.35217   3.35310   3.36423   3.36929   3.37337
 Alpha virt. eigenvalues --    3.37541   3.37770   3.38642   3.39312   3.40053
 Alpha virt. eigenvalues --    3.41234   3.41478   3.41873   3.43274   3.44957
 Alpha virt. eigenvalues --    3.45203   3.46167   3.46917   3.49307   3.49391
 Alpha virt. eigenvalues --    3.50382   3.51416   3.51772   3.52707   3.52751
 Alpha virt. eigenvalues --    3.55960   3.57275   3.58538   3.58932   3.60870
 Alpha virt. eigenvalues --    3.62099   3.62797   3.63069   3.64282   3.64742
 Alpha virt. eigenvalues --    3.65026   3.66679   3.66920   3.67845   3.68406
 Alpha virt. eigenvalues --    3.68926   3.70041   3.71257   3.71301   4.00025
 Alpha virt. eigenvalues --    4.00071   4.01266   4.01575   4.02235   4.02266
 Alpha virt. eigenvalues --    4.03117   4.03423   4.15666   4.16216   4.17386
 Alpha virt. eigenvalues --    4.18803   4.19390   4.20705   4.20968   4.21962
 Alpha virt. eigenvalues --    4.22073   4.23496   4.24201   4.25863   4.26662
 Alpha virt. eigenvalues --    4.29381   4.38182   4.40950   4.61725   4.64412
 Alpha virt. eigenvalues --    4.78462   4.79126   4.79880   4.80892   4.81218
 Alpha virt. eigenvalues --    4.82080   4.82437   4.82696   4.84851   4.85106
 Alpha virt. eigenvalues --   23.40122  23.44133  23.55175  23.59931  23.69661
 Alpha virt. eigenvalues --   23.73839  23.77841  23.79131  23.80858  23.81671
 Alpha virt. eigenvalues --   23.82781  23.84630  23.86109  23.87691  23.88975
 Alpha virt. eigenvalues --   23.89692  23.90834  23.91115  23.92332  23.94590
 Alpha virt. eigenvalues --   23.96850  23.98507  23.98734  23.99676  24.08817
 Alpha virt. eigenvalues --   24.09391  24.10096  24.10299  24.11020  24.11631
 Alpha virt. eigenvalues --   24.11737  24.13160  24.13535  24.13714  24.15056
 Alpha virt. eigenvalues --   24.15163  24.15199  24.15757  24.16733  24.16766
 Alpha virt. eigenvalues --   24.19827  24.19871  24.21577  24.21640
          Condensed to atoms (all electrons):
 Mulliken charges:
               1
     1  C   -0.057070
     2  C   -0.053424
     3  C   -0.045925
     4  C   -0.089670
     5  C   -0.088223
     6  C   -0.090212
     7  C    0.004234
     8  C   -0.057369
     9  C   -0.061921
    10  C   -0.041427
    11  H    0.085395
    12  H    0.078291
    13  H    0.076444
    14  H    0.085381
    15  H    0.098782
    16  H    0.097839
    17  C   -0.000442
    18  C   -0.057369
    19  C   -0.066322
    20  C   -0.041427
    21  H    0.076984
    22  H    0.075185
    23  C    0.004234
    24  C   -0.057070
    25  C   -0.061921
    26  C   -0.053424
    27  H    0.078291
    28  H    0.076444
    29  C   -0.045925
    30  C   -0.088223
    31  C   -0.089670
    32  C   -0.090212
    33  H    0.085395
    34  H    0.097839
    35  H    0.098782
    36  H    0.085381
    37  C   -0.019624
    38  C   -0.129704
    39  C   -0.063987
    40  C   -0.044229
    41  C   -0.085851
    42  C   -0.125078
    43  C   -0.032135
    44  C   -0.007076
    45  C   -0.002659
    46  C   -0.136689
    47  H    0.078273
    48  H    0.069901
    49  H    0.130258
    50  H    0.132814
    51  H    0.084625
    52  H    0.090732
    53  C   -0.036288
    54  C   -0.007076
    55  C   -0.007065
    56  C   -0.136689
    57  H    0.068515
    58  H    0.128045
    59  C   -0.032135
    60  C   -0.019624
    61  C   -0.002659
    62  C   -0.129704
    63  H    0.069901
    64  H    0.130258
    65  C   -0.063987
    66  C   -0.085851
    67  C   -0.044229
    68  C   -0.125078
    69  H    0.078273
    70  H    0.090732
    71  H    0.084625
    72  H    0.132814
 Sum of Mulliken charges =   0.00000
 Mulliken charges with hydrogens summed into heavy atoms:
               1
     1  C   -0.057070
     2  C   -0.053424
     3  C    0.039470
     4  C   -0.004289
     5  C    0.009615
     6  C    0.008570
     7  C    0.082525
     8  C   -0.057369
     9  C    0.014523
    10  C   -0.041427
    17  C    0.076541
    18  C   -0.057369
    19  C    0.008863
    20  C   -0.041427
    23  C    0.082525
    24  C   -0.057070
    25  C    0.014523
    26  C   -0.053424
    29  C    0.039470
    30  C    0.009615
    31  C   -0.004289
    32  C    0.008570
    37  C   -0.019624
    38  C   -0.129704
    39  C    0.014287
    40  C    0.088585
    41  C    0.004881
    42  C   -0.040453
    43  C    0.037765
    44  C   -0.007076
    45  C    0.127599
    46  C   -0.136689
    53  C    0.032227
    54  C   -0.007076
    55  C    0.120980
    56  C   -0.136689
    59  C    0.037765
    60  C   -0.019624
    61  C    0.127599
    62  C   -0.129704
    65  C    0.014287
    66  C    0.004881
    67  C    0.088585
    68  C   -0.040453
         Mulliken charges condensed to fragments:
      1     -0.032350
      2      0.032350
 Electronic spatial extent (au):  <R**2>=          25653.2836
 Charge=              0.0000 electrons
 Dipole moment (field-independent basis, Debye):
    X=              0.5570    Y=             -1.6738    Z=              0.0000  Tot=              1.7641
 Quadrupole moment (field-independent basis, Debye-Ang):
   XX=           -245.6351   YY=           -249.6106   ZZ=           -219.8169
   XY=             -0.3133   XZ=              0.0000   YZ=              0.0000
 Traceless Quadrupole moment (field-independent basis, Debye-Ang):
   XX=             -7.2809   YY=            -11.2564   ZZ=             18.5373
   XY=             -0.3133   XZ=              0.0000   YZ=              0.0000
 Octapole moment (field-independent basis, Debye-Ang**2):
  XXX=             37.4175  YYY=            170.0097  ZZZ=              0.0000  XYY=             -6.8329
  XXY=            -71.3751  XXZ=              0.0000  XZZ=              9.7849  YZZ=            -37.7699
  YYZ=              0.0000  XYZ=              0.0000
 Hexadecapole moment (field-independent basis, Debye-Ang**3):
 XXXX=          -1545.3441 YYYY=         -11081.8651 ZZZZ=         -21042.0702 XXXY=            834.1426
 XXXZ=              0.0000 YYYX=            842.5726 YYYZ=              0.0000 ZZZX=              0.0000
 ZZZY=              0.0000 XXYY=          -2177.1428 XXZZ=          -4200.3985 YYZZ=          -5649.7776
 XXYZ=              0.0000 YYXZ=              0.0000 ZZXY=            246.0061
 N-N= 4.652279151912D+03 E-N=-1.323510457934D+04  KE= 1.686707252426D+03
 Symmetry A'   KE= 9.134377114166D+02
 Symmetry A"   KE= 7.732695410091D+02
 No NMR shielding tensors so no spin-rotation constants.
 Leave Link  601 at Wed Sep 27 16:59:30 2023, MaxMem=  3221225472 cpu:              52.6 elap:               1.4
 (Enter /home/center/opt/aarch64/apps/gaussian16/c01/g16/l122.exe)
 CPIOFr:  IOpCl= 0 IRwI=-1 IRwCP=  731 ICalc= -1 LCPTot=     1419224 Len1MO=     3708034 IndFrg=     1419224
 CPIOFr:  IOpCl= 0 IRwI=-1 IRwCP=  731 ICalc=  0 LCPTot=     1419224 Len1MO=     3708034 IndFrg=     5127258
 Counterpoise: doing calculation for fragment   1 using the basis set of the full-system, NewBq=T
 Leave Link  122 at Wed Sep 27 16:59:33 2023, MaxMem=  3221225472 cpu:               8.7 elap:               0.5
 (Enter /home/center/opt/aarch64/apps/gaussian16/c01/g16/l301.exe)
 Basis read from rwf:  (5D, 7F)
 No pseudopotential information found on rwf file.
 There are   528 symmetry adapted cartesian basis functions of A'  symmetry.
 There are   476 symmetry adapted cartesian basis functions of A"  symmetry.
 There are   504 symmetry adapted basis functions of A'  symmetry.
 There are   456 symmetry adapted basis functions of A"  symmetry.
   960 basis functions,  1632 primitive gaussians,  1004 cartesian basis functions
    73 alpha electrons       73 beta electrons
       nuclear repulsion energy      1494.3575060228 Hartrees.
 IExCor=  402 DFT=T Ex+Corr=B3LYP ExCW=0 ScaHFX=  0.200000
 ScaDFX=  0.800000  0.720000  1.000000  0.810000 ScalE2=  1.000000  1.000000
 IRadAn=      5 IRanWt=     -1 IRanGd=            0 ICorTp=0 IEmpDi=131
 NAtoms=   72 NActive=   72 NUniq=   40 SFac= 3.24D+00 NAtFMM=   60 NAOKFM=T Big=F
 Integral buffers will be    131072 words long.
 Raffenetti 2 integral format.
 Two-electron integral symmetry is turned on.
 R6Disp:  Grimme-D3 Dispersion energy=       -0.0303938888 Hartrees.
 Nuclear repulsion after empirical dispersion term =     1494.3271121340 Hartrees.
 No density basis found on file    718.
 Leave Link  301 at Wed Sep 27 16:59:36 2023, MaxMem=  3221225472 cpu:               2.8 elap:               0.1
 (Enter /home/center/opt/aarch64/apps/gaussian16/c01/g16/l302.exe)
 NPDir=0 NMtPBC=     1 NCelOv=     1 NCel=       1 NClECP=     1 NCelD=      1
         NCelK=      1 NCelE2=     1 NClLst=     1 CellRange=     0.0.
 One-electron integrals computed using PRISM.
 One-electron integral symmetry used in STVInt
 NBasis=   960 RedAO= T EigKep=  3.74D-05  NBF=   504   456
 NBsUse=   960 1.00D-06 EigRej= -1.00D+00 NBFU=   504   456
 Precomputing XC quadrature grid using
 IXCGrd= 4 IRadAn=           5 IRanWt=          -1 IRanGd=           0 AccXCQ= 0.00D+00.
 Generated NRdTot=       0 NPtTot=           0 NUsed=           0 NTot=          32
 NSgBfM=   991   991   991   991   991 MxSgAt=    72 MxSgA2=    72.
 Leave Link  302 at Wed Sep 27 16:59:40 2023, MaxMem=  3221225472 cpu:              63.5 elap:               1.7
 (Enter /home/center/opt/aarch64/apps/gaussian16/c01/g16/l303.exe)
 DipDrv:  MaxL=1.
 Leave Link  303 at Wed Sep 27 16:59:42 2023, MaxMem=  3221225472 cpu:              13.6 elap:               0.4
 (Enter /home/center/opt/aarch64/apps/gaussian16/c01/g16/l401.exe)
 ExpMin= 1.03D-01 ExpMax= 4.56D+03 ExpMxC= 6.82D+02 IAcc=3 IRadAn=         5 AccDes= 0.00D+00
 Harris functional with IExCor=  402 and IRadAn=       5 diagonalized for initial guess.
 HarFok:  IExCor=  402 AccDes= 0.00D+00 IRadAn=         5 IDoV= 1 UseB2=F ITyADJ=14
 ICtDFT=  3500011 ScaDFX=  1.000000  1.000000  1.000000  1.000000
 FoFCou: FMM=F IPFlag=           0 FMFlag=      100000 FMFlg1=        2000
         NFxFlg=           0 DoJE=T BraDBF=F KetDBF=T FulRan=T
         wScrn=  0.000000 ICntrl=       500 IOpCl=  0 I1Cent=   200000004 NGrid=           0
         NMat0=    1 NMatS0=      1 NMatT0=    0 NMatD0=    1 NMtDS0=    0 NMtDT0=    0
 Petite list used in FoFCou.
 Harris En= -847.066869406603    
 JPrj=0 DoOrth=F DoCkMO=F.
 Initial guess orbital symmetries:
       Occupied  (A") (A') (A') (A") (A") (A') (A") (A') (A') (A")
                 (A") (A') (A') (A') (A") (A') (A") (A') (A") (A')
                 (A') (A") (A') (A") (A') (A") (A') (A') (A") (A')
                 (A") (A") (A') (A') (A") (A") (A') (A") (A') (A')
                 (A') (A") (A") (A") (A') (A') (A") (A') (A') (A")
                 (A') (A") (A") (A') (A') (A") (A') (A") (A') (A")
                 (A") (A') (A') (A") (A') (A") (A') (A") (A') (A')
                 (A") (A") (A')
       Virtual   (A') (A") (A") (A') (A') (A") (A') (A") (A') (A")
                 (A') (A') (A") (A') (A") (A') (A') (A") (A') (A")
                 (A") (A") (A') (A') (A") (A') (A') (A') (A') (A")
                 (A') (A") (A") (A') (A') (A") (A') (A") (A") (A')
                 (A') (A") (A") (A') (A") (A') (A") (A') (A") (A')
                 (A') (A") (A') (A") (A') (A') (A") (A") (A') (A")
                 (A') (A') (A') (A') (A") (A") (A") (A") (A') (A')
                 (A") (A') (A") (A') (A') (A') (A") (A') (A') (A')
                 (A") (A") (A") (A") (A') (A') (A') (A") (A") (A')
                 (A") (A") (A") (A') (A') (A") (A') (A') (A") (A')
                 (A') (A") (A') (A') (A") (A") (A') (A') (A") (A')
                 (A') (A") (A') (A") (A') (A") (A") (A") (A') (A")
                 (A') (A') (A") (A") (A') (A') (A") (A') (A") (A')
                 (A') (A") (A') (A') (A") (A") (A') (A") (A') (A')
                 (A') (A") (A') (A') (A") (A") (A') (A") (A") (A')
                 (A") (A') (A") (A") (A') (A') (A") (A') (A') (A")
                 (A') (A") (A') (A") (A') (A') (A") (A') (A") (A")
                 (A") (A') (A") (A') (A') (A') (A") (A') (A") (A")
                 (A') (A") (A') (A") (A') (A") (A') (A") (A') (A')
                 (A") (A') (A') (A") (A') (A") (A') (A") (A') (A")
                 (A') (A") (A') (A") (A') (A") (A') (A") (A") (A')
                 (A") (A') (A") (A') (A") (A') (A") (A') (A') (A")
                 (A") (A') (A') (A') (A") (A") (A') (A') (A") (A')
                 (A') (A") (A') (A") (A') (A") (A") (A") (A') (A")
                 (A') (A') (A") (A") (A') (A') (A') (A") (A") (A")
                 (A') (A") (A') (A") (A') (A') (A') (A") (A') (A")
                 (A") (A') (A") (A') (A') (A') (A") (A') (A") (A")
                 (A') (A') (A") (A") (A") (A') (A') (A") (A") (A')
                 (A") (A') (A') (A') (A") (A") (A") (A') (A') (A")
                 (A') (A') (A") (A') (A') (A') (A") (A') (A") (A")
                 (A') (A') (A") (A') (A') (A") (A") (A") (A") (A")
                 (A') (A") (A') (A') (A") (A') (A') (A") (A') (A')
                 (A") (A') (A") (A") (A') (A') (A") (A') (A") (A')
                 (A') (A") (A') (A') (A") (A') (A") (A') (A') (A")
                 (A") (A") (A") (A') (A") (A') (A") (A') (A') (A')
                 (A") (A") (A') (A') (A') (A") (A') (A") (A') (A')
                 (A") (A') (A") (A') (A") (A") (A') (A") (A') (A')
                 (A") (A") (A") (A") (A') (A") (A') (A') (A") (A')
                 (A') (A") (A') (A") (A") (A') (A') (A") (A') (A")
                 (A') (A") (A") (A') (A') (A") (A') (A') (A") (A")
                 (A') (A') (A") (A") (A") (A') (A") (A') (A') (A")
                 (A") (A') (A') (A') (A') (A") (A") (A') (A') (A")
                 (A") (A') (A") (A") (A') (A") (A") (A') (A") (A')
                 (A") (A') (A') (A') (A') (A') (A") (A") (A') (A")
                 (A") (A') (A') (A") (A') (A") (A') (A") (A') (A")
                 (A") (A') (A') (A') (A") (A') (A") (A') (A") (A")
                 (A") (A') (A') (A") (A') (A") (A") (A') (A') (A')
                 (A') (A") (A") (A") (A') (A") (A") (A') (A') (A")
                 (A') (A") (A") (A') (A") (A') (A') (A") (A") (A')
                 (A") (A') (A") (A') (A') (A") (A') (A") (A') (A")
                 (A") (A') (A') (A") (A') (A") (A") (A') (A') (A')
                 (A") (A') (A") (A") (A") (A') (A") (A') (A') (A')
                 (A") (A') (A") (A") (A') (A') (A") (A") (A') (A")
                 (A') (A') (A') (A") (A') (A") (A') (A") (A') (A")
                 (A') (A") (A') (A") (A') (A') (A") (A') (A") (A")
                 (A') (A") (A') (A') (A') (A") (A') (A") (A') (A")
                 (A') (A") (A') (A") (A") (A') (A") (A") (A') (A")
                 (A') (A') (A') (A') (A") (A') (A') (A") (A") (A')
                 (A") (A') (A") (A") (A') (A') (A") (A") (A") (A')
                 (A') (A') (A') (A") (A') (A") (A') (A") (A') (A")
                 (A') (A") (A") (A") (A') (A") (A') (A') (A') (A")
                 (A") (A') (A') (A") (A') (A") (A') (A") (A') (A")
                 (A') (A') (A") (A") (A') (A") (A") (A') (A') (A")
                 (A") (A") (A') (A") (A") (A') (A') (A') (A') (A')
                 (A") (A") (A") (A') (A") (A') (A') (A") (A') (A")
                 (A') (A") (A') (A") (A') (A") (A") (A') (A") (A')
                 (A") (A') (A") (A') (A") (A") (A') (A') (A") (A')
                 (A') (A") (A") (A') (A') (A") (A') (A") (A') (A')
                 (A") (A') (A') (A") (A") (A') (A') (A") (A') (A")
                 (A') (A") (A') (A') (A") (A") (A') (A") (A') (A')
                 (A") (A") (A') (A") (A') (A") (A') (A') (A") (A')
                 (A") (A') (A") (A') (A") (A') (A') (A") (A') (A')
                 (A") (A") (A') (A") (A") (A') (A') (A') (A') (A")
                 (A") (A") (A') (A") (A') (A") (A') (A") (A") (A')
                 (A") (A') (A") (A') (A") (A') (A') (A") (A") (A')
                 (A') (A") (A') (A') (A") (A') (A") (A') (A") (A')
                 (A") (A') (A') (A") (A") (A') (A') (A') (A") (A")
                 (A") (A') (A') (A") (A') (A') (A") (A') (A") (A')
                 (A") (A') (A') (A") (A") (A") (A') (A") (A') (A')
                 (A") (A') (A") (A") (A') (A") (A') (A') (A') (A")
                 (A") (A') (A") (A') (A") (A') (A") (A') (A') (A")
                 (A") (A') (A') (A") (A') (A") (A") (A') (A") (A')
[...]
                 (A') (A') (A") (A") (A') (A") (A') (A") (A') (A')
                 (A") (A") (A')
       Virtual   (A') (A") (A") (A') (A') (A") (A') (A') (A') (A")
                 (A") (A') (A") (A') (A") (A') (A") (A") (A') (A")
                 (A') (A') (A") (A') (A") (A') (A') (A') (A') (A")
                 (A") (A") (A") (A') (A') (A") (A') (A") (A') (A")
                 (A') (A') (A') (A") (A') (A") (A") (A') (A') (A")
                 (A") (A') (A') (A") (A') (A") (A") (A") (A') (A")
                 (A') (A') (A') (A') (A') (A") (A') (A') (A") (A")
                 (A") (A') (A') (A') (A") (A') (A") (A") (A") (A')
                 (A') (A") (A') (A") (A") (A') (A") (A') (A') (A')
                 (A') (A') (A") (A") (A") (A") (A') (A") (A') (A")
                 (A') (A') (A') (A") (A") (A') (A') (A") (A') (A")
                 (A') (A") (A") (A") (A') (A') (A") (A') (A') (A")
                 (A') (A") (A") (A') (A') (A") (A') (A") (A') (A")
                 (A") (A') (A') (A') (A') (A") (A") (A") (A') (A")
                 (A') (A") (A') (A") (A') (A') (A") (A") (A') (A")
                 (A') (A") (A') (A") (A') (A') (A") (A') (A") (A")
                 (A') (A") (A') (A') (A") (A") (A') (A") (A') (A")
                 (A') (A') (A") (A') (A') (A") (A") (A') (A') (A')
                 (A") (A') (A") (A") (A") (A") (A') (A") (A') (A')
                 (A") (A') (A") (A') (A') (A') (A") (A') (A") (A')
                 (A") (A") (A') (A') (A") (A") (A') (A') (A") (A')
                 (A') (A') (A') (A") (A") (A") (A") (A') (A') (A")
                 (A') (A") (A") (A') (A") (A') (A") (A') (A") (A')
                 (A") (A') (A') (A") (A') (A") (A") (A') (A') (A")
                 (A") (A') (A') (A") (A") (A') (A") (A") (A") (A')
                 (A') (A") (A') (A') (A") (A') (A') (A") (A') (A")
                 (A") (A') (A") (A') (A') (A") (A") (A") (A') (A')
                 (A") (A') (A') (A") (A") (A") (A') (A") (A') (A')
                 (A") (A') (A") (A') (A") (A') (A') (A') (A") (A')
                 (A") (A") (A') (A') (A") (A") (A') (A") (A') (A")
                 (A') (A') (A") (A") (A') (A') (A") (A') (A') (A')
                 (A") (A") (A') (A") (A') (A") (A') (A") (A') (A')
                 (A') (A") (A") (A") (A') (A") (A') (A') (A') (A")
                 (A") (A') (A") (A') (A') (A") (A') (A") (A") (A')
                 (A') (A") (A') (A") (A") (A') (A') (A") (A') (A")
                 (A') (A") (A') (A") (A') (A") (A") (A') (A') (A")
                 (A') (A") (A') (A') (A") (A") (A') (A") (A') (A')
                 (A") (A') (A") (A') (A') (A") (A') (A") (A') (A")
                 (A") (A') (A") (A') (A") (A') (A") (A') (A') (A")
                 (A") (A') (A") (A') (A') (A") (A") (A') (A') (A")
                 (A') (A") (A') (A") (A') (A') (A")
 The electronic state is 1-A'.
 Alpha  occ. eigenvalues --  -10.18931 -10.18930 -10.18896 -10.18895 -10.18848
 Alpha  occ. eigenvalues --  -10.18848 -10.18813 -10.18813 -10.17956 -10.17955
 Alpha  occ. eigenvalues --  -10.17920 -10.17920 -10.17919 -10.17919 -10.17875
 Alpha  occ. eigenvalues --  -10.17875 -10.17863 -10.17863 -10.17808 -10.17808
 Alpha  occ. eigenvalues --  -10.17781 -10.17781  -0.89340  -0.87865  -0.85549
 Alpha  occ. eigenvalues --   -0.82415  -0.79820  -0.78521  -0.78314  -0.75991
 Alpha  occ. eigenvalues --   -0.74255  -0.72901  -0.69196  -0.67344  -0.62728
 Alpha  occ. eigenvalues --   -0.62370  -0.61108  -0.59964  -0.59301  -0.57689
 Alpha  occ. eigenvalues --   -0.52709  -0.52573  -0.52293  -0.49654  -0.48513
 Alpha  occ. eigenvalues --   -0.47160  -0.46110  -0.45590  -0.45476  -0.43928
 Alpha  occ. eigenvalues --   -0.43182  -0.42578  -0.41808  -0.41572  -0.41386
 Alpha  occ. eigenvalues --   -0.40692  -0.40405  -0.39579  -0.38193  -0.36732
 Alpha  occ. eigenvalues --   -0.36341  -0.35550  -0.34094  -0.33809  -0.33058
 Alpha  occ. eigenvalues --   -0.32930  -0.31612  -0.29665  -0.28406  -0.26623
 Alpha  occ. eigenvalues --   -0.24364  -0.22582  -0.17855
 Alpha virt. eigenvalues --   -0.09755  -0.04464  -0.02747  -0.00147   0.02073
 Alpha virt. eigenvalues --    0.02370   0.03189   0.04746   0.04859   0.04871
 Alpha virt. eigenvalues --    0.06161   0.06575   0.07968   0.08162   0.08303
 Alpha virt. eigenvalues --    0.09607   0.10049   0.11524   0.11533   0.13796
 Alpha virt. eigenvalues --    0.14111   0.14670   0.18092   0.18194   0.18832
 Alpha virt. eigenvalues --    0.19391   0.22815   0.23002   0.24379   0.24942
 Alpha virt. eigenvalues --    0.25581   0.27528   0.27575   0.28012   0.28228
 Alpha virt. eigenvalues --    0.28947   0.29389   0.30158   0.30759   0.31175
 Alpha virt. eigenvalues --    0.32897   0.34528   0.36420   0.36484   0.37134
 Alpha virt. eigenvalues --    0.37503   0.37629   0.37651   0.38116   0.38643
 Alpha virt. eigenvalues --    0.39094   0.39439   0.39739   0.40236   0.40435
 Alpha virt. eigenvalues --    0.41918   0.41926   0.41940   0.42289   0.42318
 Alpha virt. eigenvalues --    0.42643   0.43748   0.44233   0.44835   0.45295
 Alpha virt. eigenvalues --    0.45683   0.45924   0.45953   0.46379   0.47165
 Alpha virt. eigenvalues --    0.47805   0.47809   0.47978   0.48073   0.48231
 Alpha virt. eigenvalues --    0.48568   0.49414   0.49572   0.51377   0.51846
 Alpha virt. eigenvalues --    0.52370   0.53118   0.53671   0.55998   0.57923
 Alpha virt. eigenvalues --    0.57955   0.59048   0.59201   0.60433   0.60585
 Alpha virt. eigenvalues --    0.60693   0.61101   0.61690   0.62105   0.62173
 Alpha virt. eigenvalues --    0.63432   0.63481   0.64458   0.64535   0.65533
 Alpha virt. eigenvalues --    0.66693   0.66910   0.67680   0.67724   0.70658
 Alpha virt. eigenvalues --    0.71305   0.71405   0.71494   0.72803   0.73989
 Alpha virt. eigenvalues --    0.75405   0.75894   0.76289   0.77801   0.77809
 Alpha virt. eigenvalues --    0.78943   0.79160   0.79723   0.81162   0.81509
 Alpha virt. eigenvalues --    0.82881   0.83001   0.84383   0.84585   0.84713
 Alpha virt. eigenvalues --    0.88087   0.89711   0.89765   0.91536   0.92083
 Alpha virt. eigenvalues --    0.92578   0.93749   0.95806   0.96107   0.96442
 Alpha virt. eigenvalues --    0.96590   0.96905   0.98547   1.00356   1.01118
 Alpha virt. eigenvalues --    1.02686   1.03027   1.03354   1.04405   1.05244
 Alpha virt. eigenvalues --    1.05439   1.05525   1.05950   1.07395   1.07547
 Alpha virt. eigenvalues --    1.07686   1.08438   1.10005   1.10036   1.12070
 Alpha virt. eigenvalues --    1.13223   1.13544   1.13650   1.14526   1.15341
 Alpha virt. eigenvalues --    1.17432   1.18332   1.19657   1.20432   1.23014
 Alpha virt. eigenvalues --    1.23618   1.27884   1.28234   1.30579   1.32076
 Alpha virt. eigenvalues --    1.32743   1.34942   1.37641   1.39236   1.39896
 Alpha virt. eigenvalues --    1.39942   1.40725   1.42751   1.43476   1.43554
 Alpha virt. eigenvalues --    1.45057   1.46086   1.47119   1.47538   1.48841
 Alpha virt. eigenvalues --    1.49280   1.49417   1.50258   1.50674   1.52268
 Alpha virt. eigenvalues --    1.52650   1.53402   1.54331   1.54372   1.54781
 Alpha virt. eigenvalues --    1.54807   1.57107   1.57715   1.58569   1.59882
 Alpha virt. eigenvalues --    1.60106   1.62692   1.63242   1.64856   1.66641
 Alpha virt. eigenvalues --    1.69292   1.69605   1.69709   1.70649   1.71804
 Alpha virt. eigenvalues --    1.72459   1.72619   1.73075   1.73096   1.73680
 Alpha virt. eigenvalues --    1.77494   1.78519   1.79157   1.79419   1.80511
 Alpha virt. eigenvalues --    1.81616   1.81887   1.82058   1.83581   1.84039
 Alpha virt. eigenvalues --    1.85487   1.87392   1.87456   1.87577   1.87728
 Alpha virt. eigenvalues --    1.88131   1.88613   1.90743   1.91387   1.92190
 Alpha virt. eigenvalues --    1.92193   1.92572   1.92670   1.93517   1.93938
 Alpha virt. eigenvalues --    1.94544   1.95483   1.97262   1.99429   2.00088
 Alpha virt. eigenvalues --    2.00602   2.01362   2.03019   2.05757   2.08293
 Alpha virt. eigenvalues --    2.09111   2.09256   2.09792   2.12192   2.14098
 Alpha virt. eigenvalues --    2.15528   2.15584   2.17200   2.19751   2.20833
 Alpha virt. eigenvalues --    2.21576   2.22525   2.23381   2.24503   2.26441
 Alpha virt. eigenvalues --    2.26972   2.27242   2.27719   2.28046   2.29391
 Alpha virt. eigenvalues --    2.33301   2.35725   2.39155   2.39384   2.40817
 Alpha virt. eigenvalues --    2.42649   2.43076   2.45776   2.45994   2.46870
 Alpha virt. eigenvalues --    2.51623   2.51954   2.53354   2.53485   2.55138
 Alpha virt. eigenvalues --    2.56159   2.58701   2.58838   2.59764   2.59776
 Alpha virt. eigenvalues --    2.60682   2.61147   2.61719   2.62222   2.63349
 Alpha virt. eigenvalues --    2.63999   2.64478   2.66054   2.66794   2.67121
 Alpha virt. eigenvalues --    2.67374   2.68356   2.68872   2.68876   2.69372
 Alpha virt. eigenvalues --    2.69557   2.69907   2.70083   2.70281   2.73482
 Alpha virt. eigenvalues --    2.74771   2.74836   2.76066   2.77101   2.77577
 Alpha virt. eigenvalues --    2.78232   2.78455   2.78850   2.80822   2.82359
 Alpha virt. eigenvalues --    2.85535   2.85993   2.86737   2.87294   2.90966
 Alpha virt. eigenvalues --    2.91783   2.92195   2.93676   2.95232   2.95887
 Alpha virt. eigenvalues --    2.99270   2.99858   3.03165   3.05604   3.06852
 Alpha virt. eigenvalues --    3.07371   3.15988   3.16029   3.16647   3.19843
 Alpha virt. eigenvalues --    3.20017   3.23601   3.29134   3.29680   3.31610
 Alpha virt. eigenvalues --    3.35095   3.35458   3.35677   3.35858   3.38023
 Alpha virt. eigenvalues --    3.39887   3.41413   3.44960   3.45362   3.47993
 Alpha virt. eigenvalues --    3.48278   3.50401   3.53073   3.57439   3.58649
 Alpha virt. eigenvalues --    3.61466   3.62620   3.63208   3.63698   3.65910
 Alpha virt. eigenvalues --    3.67534   3.67678   4.00384   4.00442   4.01859
 Alpha virt. eigenvalues --    4.02182   4.16133   4.16678   4.17360   4.21240
 Alpha virt. eigenvalues --    4.22396   4.22517   4.25488   4.38492   4.62290
 Alpha virt. eigenvalues --    4.79179   4.79740   4.80562   4.82562   4.83014
 Alpha virt. eigenvalues --   23.39176  23.54541  23.69085  23.77378  23.80419
 Alpha virt. eigenvalues --   23.81537  23.86099  23.89067  23.89154  23.92210
 Alpha virt. eigenvalues --   23.97563  23.98365  24.09049  24.09932  24.10529
 Alpha virt. eigenvalues --   24.12220  24.13779  24.14375  24.15775  24.15810
 Alpha virt. eigenvalues --   24.20452  24.20497
          Condensed to atoms (all electrons):
 Mulliken charges:
               1
     1  C    0.000000
     2  C    0.000000
     3  C    0.000000
     4  C    0.000000
     5  C    0.000000
     6  C    0.000000
     7  C    0.000000
     8  C    0.000000
     9  C    0.000000
    10  C    0.000000
    11  H    0.000000
    12  H    0.000000
    13  H    0.000000
    14  H    0.000000
    15  H    0.000000
    16  H    0.000000
    17  C    0.000000
    18  C    0.000000
    19  C    0.000000
    20  C    0.000000
    21  H    0.000000
    22  H    0.000000
    23  C    0.000000
    24  C    0.000000
    25  C    0.000000
    26  C    0.000000
    27  H    0.000000
    28  H    0.000000
    29  C    0.000000
    30  C    0.000000
    31  C    0.000000
    32  C    0.000000
    33  H    0.000000
    34  H    0.000000
    35  H    0.000000
    36  H    0.000000
    37  C   -0.059168
    38  C   -0.059168
    39  C   -0.055977
    40  C   -0.055977
    41  C   -0.092198
    42  C   -0.092198
    43  C   -0.016525
    44  C   -0.054498
    45  C   -0.016525
    46  C   -0.054498
    47  H    0.082122
    48  H    0.074853
    49  H    0.074853
    50  H    0.082122
    51  H    0.094847
    52  H    0.094847
    53  C   -0.020341
    54  C   -0.054498
    55  C   -0.020341
    56  C   -0.054498
    57  H    0.073428
    58  H    0.073428
    59  C   -0.016525
    60  C   -0.059168
    61  C   -0.016525
    62  C   -0.059168
    63  H    0.074853
    64  H    0.074853
    65  C   -0.055977
    66  C   -0.092198
    67  C   -0.055977
    68  C   -0.092198
    69  H    0.082122
    70  H    0.094847
    71  H    0.094847
    72  H    0.082122
 Sum of Mulliken charges =   0.00000
 Mulliken charges with hydrogens summed into heavy atoms:
               1
     1  C    0.000000
     2  C    0.000000
     3  C    0.000000
     4  C    0.000000
     5  C    0.000000
     6  C    0.000000
     7  C    0.000000
     8  C    0.000000
     9  C    0.000000
    10  C    0.000000
    17  C    0.000000
    18  C    0.000000
    19  C    0.000000
    20  C    0.000000
    23  C    0.000000
    24  C    0.000000
    25  C    0.000000
    26  C    0.000000
    29  C    0.000000
    30  C    0.000000
    31  C    0.000000
    32  C    0.000000
    37  C   -0.059168
    38  C   -0.059168
    39  C    0.026144
    40  C    0.026144
    41  C    0.002649
    42  C    0.002649
    43  C    0.058328
    44  C   -0.054498
    45  C    0.058328
    46  C   -0.054498
    53  C    0.053087
    54  C   -0.054498
    55  C    0.053087
    56  C   -0.054498
    59  C    0.058328
    60  C   -0.059168
    61  C    0.058328
    62  C   -0.059168
    65  C    0.026144
    66  C    0.002649
    67  C    0.026144
    68  C    0.002649
         Mulliken charges condensed to fragments:
      1      0.000000
      2      0.000000
 Electronic spatial extent (au):  <R**2>=          18715.5297
 Charge=              0.0000 electrons
 Dipole moment (field-independent basis, Debye):
    X=              0.0000    Y=              0.0000    Z=              0.0000  Tot=              0.0000
 Quadrupole moment (field-independent basis, Debye-Ang):
   XX=           -136.3921   YY=           -110.7480   ZZ=           -109.0115
   XY=              0.0000   XZ=              0.0000   YZ=              0.0000
 Traceless Quadrupole moment (field-independent basis, Debye-Ang):
   XX=            -17.6749   YY=              7.9692   ZZ=              9.7057
   XY=              0.0000   XZ=              0.0000   YZ=              0.0000
 Octapole moment (field-independent basis, Debye-Ang**2):
  XXX=           1229.6578  YYY=            998.4612  ZZZ=              0.0000  XYY=            332.8204
  XXY=            409.8859  XXZ=              0.0000  XZZ=            327.6017  YZZ=            327.6017
  YYZ=              0.0000  XYZ=              0.0000
 Hexadecapole moment (field-independent basis, Debye-Ang**3):
 XXXX=          -7545.1486 YYYY=          -7117.8757 ZZZZ=         -10461.4324 XXXY=          -3695.3723
 XXXZ=              0.0000 YYYX=          -3000.5795 YYYZ=              0.0000 ZZZX=              0.0000
 ZZZY=              0.0000 XXYY=          -2488.3993 XXZZ=          -3192.4419 YYZZ=          -2953.7243
 XXYZ=              0.0000 YYXZ=              0.0000 ZZXY=           -984.5099
 N-N= 1.494327111324D+03 E-N=-4.953709174165D+03  KE= 8.433374904716D+02
 Symmetry A'   KE= 4.567052305305D+02
 Symmetry A"   KE= 3.866322599410D+02
 No NMR shielding tensors so no spin-rotation constants.
 Leave Link  601 at Wed Sep 27 17:16:42 2023, MaxMem=  3221225472 cpu:              20.6 elap:               0.5
 (Enter /home/center/opt/aarch64/apps/gaussian16/c01/g16/l122.exe)
 CPIOFr:  IOpCl= 0 IRwI=-1 IRwCP=  731 ICalc=  4 LCPTot=     1419224 Len1MO=     3708034 IndFrg=    19959394
 Restoring MOs from calculation   1 to rwf.
 CPIOFr:  IOpCl= 0 IRwI=-2 IRwCP=  731 ICalc=  0 LCPTot=     1419224 Len1MO=     3708034 IndFrg=     5127258
 Counterpoise corrected energy =   -1694.040972368319
                   BSSE energy =       0.000002575158
              sum of fragments =   -1694.039683044256
           complexation energy =      -0.81 kcal/mole (raw)
           complexation energy =      -0.81 kcal/mole (corrected)
 Leave Link  122 at Wed Sep 27 17:16:45 2023, MaxMem=  3221225472 cpu:               8.3 elap:               0.5
 (Enter /home/center/opt/aarch64/apps/gaussian16/c01/g16/l9999.exe)

 Test job not archived.
 1\1\GINC-FX0492\SP\RB3LYP\6-311G(d,p)\C44H28\Z40145W\27-Sep-2023\0\\#P
  TEST b3lyp/6-311G** EmpiricalDispersion=GD3 counterpoise=2\\pentacene
 _A1=0_A2=0_A3=45_p2\\0,1\C,0,-0.5039478476,0.5239478476,-3.6612755801\
 C,0,0.5239480325,-0.5039480325,-3.6612755629\C,0,-0.9861248463,1.00612
 48463,-4.9235927708\C,0,1.0061250889,-0.9861250889,-4.9235926697\C,0,-
 0.4963213507,0.5163213507,-6.096356521\C,0,0.5163216812,-0.4963216812,
 -6.0963564796\C,0,-0.9844684311,1.0044684311,-2.4533174875\C,0,-0.5044
 88426,0.524488426,-1.2140288145\C,0,1.0044685359,-0.9844685359,-2.4533
 173917\C,0,0.5244885437,-0.5044885437,-1.2140288362\H,0,-1.7533559667,
 1.7733559667,-4.9232600459\H,0,-1.7521866813,1.7721866813,-2.453928581
 5\H,0,1.7721859268,-1.7521859268,-2.4539284818\H,0,1.7733558421,-1.753
 3558421,-4.9232597785\H,0,0.8905568758,-0.8705568758,-7.0425276922\H,0
 ,-0.8705565046,0.8905565046,-7.042527775\C,0,-0.9848184961,1.004818496
 1,0.0099998782\C,0,-0.5044883957,0.5244883957,1.2340295553\C,0,1.00481
 85643,-0.9848185643,0.0099998696\C,0,0.5244885146,-0.5044885146,1.2340
 295261\H,0,-1.7524699697,1.7724699697,0.0099999205\H,0,1.772468921,-1.
 752468921,0.0099999641\C,0,-0.9844683048,1.0044683048,2.4733171385\C,0
 ,-0.5039477114,0.5239477114,3.681276331\C,0,1.0044684211,-0.9844684211
 ,2.4733170835\C,0,0.5239479079,-0.5039479079,3.6812763217\H,0,-1.75218
 65527,1.7721865527,2.4739285326\H,0,1.7721858092,-1.7521858092,2.47392
 83796\C,0,-0.9861245177,1.0061245177,4.9435920588\C,0,-0.4963209372,0.
 5163209372,6.116356633\C,0,1.0061247659,-0.9861247659,4.9435919377\C,0
 ,0.5163212637,-0.4963212637,6.1163566075\H,0,-1.7533556504,1.773355650
 4,4.9432601504\H,0,-0.8705567426,0.8905567426,7.0625274368\H,0,0.89055
 70967,-0.8705570967,7.0625272142\H,0,1.7733555414,-1.7533555414,4.9432
 599297\C,0,7.9960521524,0.5239478476,-3.6612755801\C,0,9.0239480325,-0
 .5039480325,-3.6612755629\C,0,7.5138751537,1.0061248463,-4.9235927708\
 C,0,9.5061250889,-0.9861250889,-4.9235926697\C,0,8.0036786493,0.516321
 3507,-6.096356521\C,0,9.0163216812,-0.4963216812,-6.0963564796\C,0,7.5
 155315689,1.0044684311,-2.4533174875\C,0,7.995511574,0.524488426,-1.21
 40288145\C,0,9.5044685359,-0.9844685359,-2.4533173917\C,0,9.0244885437
 ,-0.5044885437,-1.2140288362\H,0,6.7466440333,1.7733559667,-4.92326004
 59\H,0,6.7478133187,1.7721866813,-2.4539285815\H,0,10.2721859268,-1.75
 21859268,-2.4539284818\H,0,10.2733558421,-1.7533558421,-4.9232597785\H
 ,0,9.3905568758,-0.8705568758,-7.0425276922\H,0,7.6294434954,0.8905565
 046,-7.042527775\C,0,7.5151815039,1.0048184961,0.0099998782\C,0,7.9955
 116043,0.5244883957,1.2340295553\C,0,9.5048185643,-0.9848185643,0.0099
 998696\C,0,9.0244885146,-0.5044885146,1.2340295261\H,0,6.7475300303,1.
 7724699697,0.0099999205\H,0,10.272468921,-1.752468921,0.0099999641\C,0
 ,7.5155316952,1.0044683048,2.4733171385\C,0,7.9960522886,0.5239477114,
 3.681276331\C,0,9.5044684211,-0.9844684211,2.4733170835\C,0,9.02394790
 79,-0.5039479079,3.6812763217\H,0,6.7478134473,1.7721865527,2.47392853
 26\H,0,10.2721858092,-1.7521858092,2.4739283796\C,0,7.5138754823,1.006
 1245177,4.9435920588\C,0,8.0036790628,0.5163209372,6.116356633\C,0,9.5
 061247659,-0.9861247659,4.9435919377\C,0,9.0163212637,-0.4963212637,6.
 1163566075\H,0,6.7466443496,1.7733556504,4.9432601504\H,0,7.6294432574
 ,0.8905567426,7.0625274368\H,0,9.3905570967,-0.8705570967,7.0625272142
 \H,0,10.2733555414,-1.7533555414,4.9432599297\\Version=Fujitsu-Arm-G16
 RevC.01\State=1-A'\HF=-847.0198415\RMSD=3.183e-09\Dipole=0.0000158,-0.
 0000156,0.\Quadrupole=-7.7985625,-6.6016502,14.4002128,-18.4082435,0.,
 0.\PG=CS [SG(C4H4),X(C40H24)]\\@


 Change starts when someone sees the next step.
                            -- William Drayton
 Job cpu time:       0 days  2 hours 41 minutes  6.7 seconds.
 Elapsed time:       0 days  0 hours  4 minutes 15.7 seconds.
 File lengths (MBytes):  RWF=    718 Int=      0 D2E=      0 Chk=    208 Scr=      1
 Normal termination of Gaussian 16 at Wed Sep 27 17:16:51 2023.
