 Entering Gaussian System, Link 0=g16
 Initial command:
 /home/center/opt/aarch64/apps/gaussian16/c01/g16/l1.exe "/data/tmp/Gtmp/1006931/Gau-49.inp" -scrdir="/data/tmp/Gtmp/1006931/"
 Entering Link 1 = /home/center/opt/aarch64/apps/gaussian16/c01/g16/l1.exe PID=        50.
  
 Copyright (c) 1988-2019, Gaussian, Inc.  All Rights Reserved.
  
 This is part of the Gaussian(R) 16 program.  It is based on
 the Gaussian(R) 09 system (copyright 2009, Gaussian, Inc.),
 the Gaussian(R) 03 system (copyright 2003, Gaussian, Inc.),
 the Gaussian(R) 98 system (copyright 1998, Gaussian, Inc.),
 the Gaussian(R) 94 system (copyright 1995, Gaussian, Inc.),
 the Gaussian 92(TM) system (copyright 1992, Gaussian, Inc.),
 the Gaussian 90(TM) system (copyright 1990, Gaussian, Inc.),
 the Gaussian 88(TM) system (copyright 1988, Gaussian, Inc.),
 the Gaussian 86(TM) system (copyright 1986, Carnegie Mellon
 University), and the Gaussian 82(TM) system (copyright 1983,
 Carnegie Mellon University). Gaussian is a federally registered
 trademark of Gaussian, Inc.
  
 This software contains proprietary and confidential information,
 including trade secrets, belonging to Gaussian, Inc.
  
 This software is provided under written license and may be
 used, copied, transmitted, or stored only in accord with that
 written license.
  
 The following legend is applicable only to US Government
 contracts under FAR:
  
                    RESTRICTED RIGHTS LEGEND
  
 Use, reproduction and disclosure by the US Government is
 subject to restrictions as set forth in subparagraphs (a)
 and (c) of the Commercial Computer Software - Restricted
 Rights clause in FAR 52.227-19.
  
 Gaussian, Inc.
 340 Quinnipiac St., Bldg. 40, Wallingford CT 06492
  
  
 ---------------------------------------------------------------
 Warning -- This program may not be used in any manner that
 competes with the business of Gaussian, Inc. or will provide
 assistance to any competitor of Gaussian, Inc.  The licensee
 of this program is prohibited from giving any competitor of
 Gaussian, Inc. access to this program.  By using this program,
 the user acknowledges that Gaussian, Inc. is engaged in the
 business of creating and licensing software in the field of
 computational chemistry and represents and warrants to the
 licensee that it is not a competitor of Gaussian, Inc. and that
 it will not use this program in any manner prohibited above.
 ---------------------------------------------------------------
  

 Cite this work as:
 Gaussian 16, Revision C.01,
 M. J. Frisch, G. W. Trucks, H. B. Schlegel, G. E. Scuseria, 
 M. A. Robb, J. R. Cheeseman, G. Scalmani, V. Barone, 
 G. A. Petersson, H. Nakatsuji, X. Li, M. Caricato, A. V. Marenich, 
 J. Bloino, B. G. Janesko, R. Gomperts, B. Mennucci, H. P. Hratchian, 
 J. V. Ortiz, A. F. Izmaylov, J. L. Sonnenberg, D. Williams-Young, 
 F. Ding, F. Lipparini, F. Egidi, J. Goings, B. Peng, A. Petrone, 
 T. Henderson, D. Ranasinghe, V. G. Zakrzewski, J. Gao, N. Rega, 
 G. Zheng, W. Liang, M. Hada, M. Ehara, K. Toyota, R. Fukuda, 
 J. Hasegawa, M. Ishida, T. Nakajima, Y. Honda, O. Kitao, H. Nakai, 
 T. Vreven, K. Throssell, J. A. Montgomery, Jr., J. E. Peralta, 
 F. Ogliaro, M. J. Bearpark, J. J. Heyd, E. N. Brothers, K. N. Kudin, 
 V. N. Staroverov, T. A. Keith, R. Kobayashi, J. Normand, 
 K. Raghavachari, A. P. Rendell, J. C. Burant, S. S. Iyengar, 
 J. Tomasi, M. Cossi, J. M. Millam, M. Klene, C. Adamo, R. Cammi, 
 J. W. Ochterski, R. L. Martin, K. Morokuma, O. Farkas, 
 J. B. Foresman, and D. J. Fox, Gaussian, Inc., Wallingford CT, 2019.
 
 ************************************************
 Gaussian 16:  Fujitsu-Arm-G16RevC.01  3-Jul-2019
                   27-Sep-2023 
 ************************************************
 %mem=24GB
 %nproc=42
 Will use up to   42 processors via shared memory.
 -------------------------------------------------------------
 #P TEST b3lyp/6-311G** EmpiricalDispersion=GD3 counterpoise=2
 -------------------------------------------------------------
 1/38=1,62=2,172=1/1;
 2/12=2,17=6,18=5,40=1/2;
 1/38=1,53=2,62=2,63=1/22;
 3/5=4,6=6,7=101,11=2,25=1,30=1,74=-5,124=31/1,2,3;
 4//1;
 5/5=2,38=5/2;
 6/7=2,8=2,9=2,10=2,28=1/1;
 1/53=2,62=2,63=1/22;
 3/5=7,6=11,7=101,11=2,25=1,30=1,74=-5,82=7,124=31/1,2,3;
 4//1;
 5/5=2,38=5/2;
 6/7=2,8=2,9=2,10=2,28=1/1;
 1/53=2,62=2,63=1/22(-4);
 99/5=1,9=1/99;
 Leave Link    1 at Wed Sep 27 16:37:38 2023, MaxMem=  3221225472 cpu:               6.8 elap:               0.2
 (Enter /home/center/opt/aarch64/apps/gaussian16/c01/g16/l101.exe)
 ----------------------------
 pentacene_A1=0_A2=0_A3=45_t1
 ----------------------------
 Symbolic Z-matrix:
 Charge =  0 Multiplicity = 1 in supermolecule
 Charge =  0 Multiplicity = 1 in fragment      1.
 Charge =  0 Multiplicity = 1 in fragment      2.
 C(Fragment=1)        -0.50395   0.52395  -3.66128 
 C(Fragment=1)         0.52395  -0.50395  -3.66128 
 C(Fragment=1)        -0.98612   1.00612  -4.92359 
 C(Fragment=1)         1.00613  -0.98613  -4.92359 
 C(Fragment=1)        -0.49632   0.51632  -6.09636 
 C(Fragment=1)         0.51632  -0.49632  -6.09636 
 C(Fragment=1)        -0.98447   1.00447  -2.45332 
 C(Fragment=1)        -0.50449   0.52449  -1.21403 
 C(Fragment=1)         1.00447  -0.98447  -2.45332 
 C(Fragment=1)         0.52449  -0.50449  -1.21403 
 H(Fragment=1)        -1.75336   1.77336  -4.92326 
 H(Fragment=1)        -1.75219   1.77219  -2.45393 
 H(Fragment=1)         1.77219  -1.75219  -2.45393 
 H(Fragment=1)         1.77336  -1.75336  -4.92326 
 H(Fragment=1)         0.89056  -0.87056  -7.04253 
 H(Fragment=1)        -0.87056   0.89056  -7.04253 
 C(Fragment=1)        -0.98482   1.00482   0.01 
 C(Fragment=1)        -0.50449   0.52449   1.23403 
 C(Fragment=1)         1.00482  -0.98482   0.01 
 C(Fragment=1)         0.52449  -0.50449   1.23403 
 H(Fragment=1)        -1.75247   1.77247   0.01 
 H(Fragment=1)         1.77247  -1.75247   0.01 
 C(Fragment=1)        -0.98447   1.00447   2.47332 
 C(Fragment=1)        -0.50395   0.52395   3.68128 
 C(Fragment=1)         1.00447  -0.98447   2.47332 
 C(Fragment=1)         0.52395  -0.50395   3.68128 
 H(Fragment=1)        -1.75219   1.77219   2.47393 
 H(Fragment=1)         1.77219  -1.75219   2.47393 
 C(Fragment=1)        -0.98612   1.00612   4.94359 
 C(Fragment=1)        -0.49632   0.51632   6.11636 
 C(Fragment=1)         1.00612  -0.98612   4.94359 
 C(Fragment=1)         0.51632  -0.49632   6.11636 
 H(Fragment=1)        -1.75336   1.77336   4.94326 
 H(Fragment=1)        -0.87056   0.89056   7.06253 
 H(Fragment=1)         0.89056  -0.87056   7.06253 
 H(Fragment=1)         1.77336  -1.75336   4.94326 
 C(Fragment=2)         3.02395   5.77395  -3.66128 
 C(Fragment=2)         1.99605   4.74605  -3.66128 
 C(Fragment=2)         3.50612   6.25612  -4.92359 
 C(Fragment=2)         1.51387   4.26387  -4.92359 
 C(Fragment=2)         3.01632   5.76632  -6.09636 
 C(Fragment=2)         2.00368   4.75368  -6.09636 
 C(Fragment=2)         3.50447   6.25447  -2.45332 
 C(Fragment=2)         3.02449   5.77449  -1.21403 
 C(Fragment=2)         1.51553   4.26553  -2.45332 
 C(Fragment=2)         1.99551   4.74551  -1.21403 
 H(Fragment=2)         4.27336   7.02336  -4.92326 
 H(Fragment=2)         4.27219   7.02219  -2.45393 
 H(Fragment=2)         0.74781   3.49781  -2.45393 
 H(Fragment=2)         0.74664   3.49664  -4.92326 
 H(Fragment=2)         1.62944   4.37944  -7.04253 
 H(Fragment=2)         3.39056   6.14056  -7.04253 
 C(Fragment=2)         3.50482   6.25482   0.01 
 C(Fragment=2)         3.02449   5.77449   1.23403 
 C(Fragment=2)         1.51518   4.26518   0.01 
 C(Fragment=2)         1.99551   4.74551   1.23403 
 H(Fragment=2)         4.27247   7.02247   0.01 
 H(Fragment=2)         0.74753   3.49753   0.01 
 C(Fragment=2)         3.50447   6.25447   2.47332 
 C(Fragment=2)         3.02395   5.77395   3.68128 
 C(Fragment=2)         1.51553   4.26553   2.47332 
 C(Fragment=2)         1.99605   4.74605   3.68128 
 H(Fragment=2)         4.27219   7.02219   2.47393 
 H(Fragment=2)         0.74781   3.49781   2.47393 
 C(Fragment=2)         3.50612   6.25612   4.94359 
 C(Fragment=2)         3.01632   5.76632   6.11636 
 C(Fragment=2)         1.51388   4.26388   4.94359 
 C(Fragment=2)         2.00368   4.75368   6.11636 
 H(Fragment=2)         4.27336   7.02336   4.94326 
 H(Fragment=2)         3.39056   6.14056   7.06253 
 H(Fragment=2)         1.62944   4.37944   7.06253 
 H(Fragment=2)         0.74664   3.49664   4.94326 
 
 ITRead=  0  0  0  0  0  0  0  0  0  0  0  0  0  0  0  0  0  0  0  0
 ITRead=  0  0  0  0  0  0  0  0  0  0  0  0  0  0  0  0  0  0  0  0
 ITRead=  0  0  0  0  0  0  0  0  0  0  0  0  0  0  0  0  0  0  0  0
 ITRead=  0  0  0  0  0  0  0  0  0  0  0  0
 MicOpt= -1 -1 -1 -1 -1 -1 -1 -1 -1 -1 -1 -1 -1 -1 -1 -1 -1 -1 -1 -1
 MicOpt= -1 -1 -1 -1 -1 -1 -1 -1 -1 -1 -1 -1 -1 -1 -1 -1 -1 -1 -1 -1
 MicOpt= -1 -1 -1 -1 -1 -1 -1 -1 -1 -1 -1 -1 -1 -1 -1 -1 -1 -1 -1 -1
 MicOpt= -1 -1 -1 -1 -1 -1 -1 -1 -1 -1 -1 -1
 NAtoms=     72 NQM=       72 NQMF=       0 NMMI=      0 NMMIF=      0
                NMic=       0 NMicF=      0.
                    Isotopes and Nuclear Properties:
 (Nuclear quadrupole moments (NQMom) in fm**2, nuclear magnetic moments (NMagM)
  in nuclear magnetons)

  Atom         1           2           3           4           5           6           7           8           9          10
 IAtWgt=          12          12          12          12          12          12          12          12          12          12
 AtmWgt=  12.0000000  12.0000000  12.0000000  12.0000000  12.0000000  12.0000000  12.0000000  12.0000000  12.0000000  12.0000000
 NucSpn=           0           0           0           0           0           0           0           0           0           0
 AtZEff=   0.0000000   0.0000000   0.0000000   0.0000000   0.0000000   0.0000000   0.0000000   0.0000000   0.0000000   0.0000000
 NQMom=    0.0000000   0.0000000   0.0000000   0.0000000   0.0000000   0.0000000   0.0000000   0.0000000   0.0000000   0.0000000
 NMagM=    0.0000000   0.0000000   0.0000000   0.0000000   0.0000000   0.0000000   0.0000000   0.0000000   0.0000000   0.0000000
 AtZNuc=   6.0000000   6.0000000   6.0000000   6.0000000   6.0000000   6.0000000   6.0000000   6.0000000   6.0000000   6.0000000

  Atom        11          12          13          14          15          16          17          18          19          20
 IAtWgt=           1           1           1           1           1           1          12          12          12          12
 AtmWgt=   1.0078250   1.0078250   1.0078250   1.0078250   1.0078250   1.0078250  12.0000000  12.0000000  12.0000000  12.0000000
 NucSpn=           1           1           1           1           1           1           0           0           0           0
 AtZEff=   0.0000000   0.0000000   0.0000000   0.0000000   0.0000000   0.0000000   0.0000000   0.0000000   0.0000000   0.0000000
 NQMom=    0.0000000   0.0000000   0.0000000   0.0000000   0.0000000   0.0000000   0.0000000   0.0000000   0.0000000   0.0000000
 NMagM=    2.7928460   2.7928460   2.7928460   2.7928460   2.7928460   2.7928460   0.0000000   0.0000000   0.0000000   0.0000000
 AtZNuc=   1.0000000   1.0000000   1.0000000   1.0000000   1.0000000   1.0000000   6.0000000   6.0000000   6.0000000   6.0000000

  Atom        21          22          23          24          25          26          27          28          29          30
 IAtWgt=           1           1          12          12          12          12           1           1          12          12
 AtmWgt=   1.0078250   1.0078250  12.0000000  12.0000000  12.0000000  12.0000000   1.0078250   1.0078250  12.0000000  12.0000000
 NucSpn=           1           1           0           0           0           0           1           1           0           0
 AtZEff=   0.0000000   0.0000000   0.0000000   0.0000000   0.0000000   0.0000000   0.0000000   0.0000000   0.0000000   0.0000000
 NQMom=    0.0000000   0.0000000   0.0000000   0.0000000   0.0000000   0.0000000   0.0000000   0.0000000   0.0000000   0.0000000
 NMagM=    2.7928460   2.7928460   0.0000000   0.0000000   0.0000000   0.0000000   2.7928460   2.7928460   0.0000000   0.0000000
 AtZNuc=   1.0000000   1.0000000   6.0000000   6.0000000   6.0000000   6.0000000   1.0000000   1.0000000   6.0000000   6.0000000

  Atom        31          32          33          34          35          36          37          38          39          40
 IAtWgt=          12          12           1           1           1           1          12          12          12          12
 AtmWgt=  12.0000000  12.0000000   1.0078250   1.0078250   1.0078250   1.0078250  12.0000000  12.0000000  12.0000000  12.0000000
 NucSpn=           0           0           1           1           1           1           0           0           0           0
 AtZEff=   0.0000000   0.0000000   0.0000000   0.0000000   0.0000000   0.0000000   0.0000000   0.0000000   0.0000000   0.0000000
 NQMom=    0.0000000   0.0000000   0.0000000   0.0000000   0.0000000   0.0000000   0.0000000   0.0000000   0.0000000   0.0000000
 NMagM=    0.0000000   0.0000000   2.7928460   2.7928460   2.7928460   2.7928460   0.0000000   0.0000000   0.0000000   0.0000000
 AtZNuc=   6.0000000   6.0000000   1.0000000   1.0000000   1.0000000   1.0000000   6.0000000   6.0000000   6.0000000   6.0000000

  Atom        41          42          43          44          45          46          47          48          49          50
 IAtWgt=          12          12          12          12          12          12           1           1           1           1
 AtmWgt=  12.0000000  12.0000000  12.0000000  12.0000000  12.0000000  12.0000000   1.0078250   1.0078250   1.0078250   1.0078250
 NucSpn=           0           0           0           0           0           0           1           1           1           1
 AtZEff=   0.0000000   0.0000000   0.0000000   0.0000000   0.0000000   0.0000000   0.0000000   0.0000000   0.0000000   0.0000000
 NQMom=    0.0000000   0.0000000   0.0000000   0.0000000   0.0000000   0.0000000   0.0000000   0.0000000   0.0000000   0.0000000
 NMagM=    0.0000000   0.0000000   0.0000000   0.0000000   0.0000000   0.0000000   2.7928460   2.7928460   2.7928460   2.7928460
 AtZNuc=   6.0000000   6.0000000   6.0000000   6.0000000   6.0000000   6.0000000   1.0000000   1.0000000   1.0000000   1.0000000

  Atom        51          52          53          54          55          56          57          58          59          60
 IAtWgt=           1           1          12          12          12          12           1           1          12          12
 AtmWgt=   1.0078250   1.0078250  12.0000000  12.0000000  12.0000000  12.0000000   1.0078250   1.0078250  12.0000000  12.0000000
 NucSpn=           1           1           0           0           0           0           1           1           0           0
 AtZEff=   0.0000000   0.0000000   0.0000000   0.0000000   0.0000000   0.0000000   0.0000000   0.0000000   0.0000000   0.0000000
 NQMom=    0.0000000   0.0000000   0.0000000   0.0000000   0.0000000   0.0000000   0.0000000   0.0000000   0.0000000   0.0000000
 NMagM=    2.7928460   2.7928460   0.0000000   0.0000000   0.0000000   0.0000000   2.7928460   2.7928460   0.0000000   0.0000000
 AtZNuc=   1.0000000   1.0000000   6.0000000   6.0000000   6.0000000   6.0000000   1.0000000   1.0000000   6.0000000   6.0000000

  Atom        61          62          63          64          65          66          67          68          69          70
 IAtWgt=          12          12           1           1          12          12          12          12           1           1
 AtmWgt=  12.0000000  12.0000000   1.0078250   1.0078250  12.0000000  12.0000000  12.0000000  12.0000000   1.0078250   1.0078250
 NucSpn=           0           0           1           1           0           0           0           0           1           1
 AtZEff=   0.0000000   0.0000000   0.0000000   0.0000000   0.0000000   0.0000000   0.0000000   0.0000000   0.0000000   0.0000000
 NQMom=    0.0000000   0.0000000   0.0000000   0.0000000   0.0000000   0.0000000   0.0000000   0.0000000   0.0000000   0.0000000
 NMagM=    0.0000000   0.0000000   2.7928460   2.7928460   0.0000000   0.0000000   0.0000000   0.0000000   2.7928460   2.7928460
 AtZNuc=   6.0000000   6.0000000   1.0000000   1.0000000   6.0000000   6.0000000   6.0000000   6.0000000   1.0000000   1.0000000

  Atom        71          72
 IAtWgt=           1           1
 AtmWgt=   1.0078250   1.0078250
 NucSpn=           1           1
 AtZEff=   0.0000000   0.0000000
 NQMom=    0.0000000   0.0000000
 NMagM=    2.7928460   2.7928460
 AtZNuc=   1.0000000   1.0000000
 Leave Link  101 at Wed Sep 27 16:37:40 2023, MaxMem=  3221225472 cpu:               2.5 elap:               0.1
 (Enter /home/center/opt/aarch64/apps/gaussian16/c01/g16/l202.exe)
 Stoichiometry    C44H28
 Framework group  CS[SG(C4H4),X(C40H24)]
 Deg. of freedom   109
 Full point group                 CS      NOp   2
 Largest Abelian subgroup         CS      NOp   2
 Largest concise Abelian subgroup CS      NOp   2
                         Standard orientation:                         
 ---------------------------------------------------------------------
 Center     Atomic      Atomic             Coordinates (Angstroms)
 Number     Number       Type             X           Y           Z
 ---------------------------------------------------------------------
      1          6           0       -0.245440   -2.740039    3.671276
      2          6           0       -1.699104   -2.740039    3.671276
      3          6           0        0.436461   -2.740039    4.933593
      4          6           0       -2.381005   -2.740039    4.933593
      5          6           0       -0.256225   -2.740039    6.106357
      6          6           0       -1.688319   -2.740039    6.106357
      7          6           0        0.434119   -2.740039    2.463318
      8          6           0       -0.244675   -2.740039    1.224029
      9          6           0       -2.378663   -2.740039    2.463317
     10          6           0       -1.699868   -2.740039    1.224029
     11          1           0        1.521490   -2.740039    4.933260
     12          1           0        1.519837   -2.740039    2.463929
     13          1           0       -3.464379   -2.740039    2.463929
     14          1           0       -3.466034   -2.740039    4.933260
     15          1           0       -2.217567   -2.740039    7.052528
     16          1           0        0.273023   -2.740039    7.052528
     17          6           0        0.434614   -2.740039    0.000000
     18          6           0       -0.244675   -2.740039   -1.224029
     19          6           0       -2.379158   -2.740039    0.000000
     20          6           0       -1.699868   -2.740039   -1.224029
     21          1           0        1.520237   -2.740039    0.000000
     22          1           0       -3.464779   -2.740039    0.000000
     23          6           0        0.434119   -2.740039   -2.463318
     24          6           0       -0.245440   -2.740039   -3.671276
     25          6           0       -2.378663   -2.740039   -2.463317
     26          6           0       -1.699104   -2.740039   -3.671276
     27          1           0        1.519837   -2.740039   -2.463929
     28          1           0       -3.464379   -2.740039   -2.463929
     29          6           0        0.436461   -2.740039   -4.933593
     30          6           0       -0.256225   -2.740039   -6.106357
     31          6           0       -2.381005   -2.740039   -4.933593
     32          6           0       -1.688319   -2.740039   -6.106357
     33          1           0        1.521490   -2.740039   -4.933260
     34          1           0        0.273023   -2.740039   -7.052528
     35          1           0       -2.217567   -2.740039   -7.052528
     36          1           0       -3.466034   -2.740039   -4.933260
     37          6           0        0.972272    3.466871    3.671276
     38          6           0        0.972272    2.013207    3.671276
     39          6           0        0.972272    4.148772    4.933593
     40          6           0        0.972272    1.331305    4.933593
     41          6           0        0.972272    3.456085    6.106357
     42          6           0        0.972272    2.023992    6.106357
     43          6           0        0.972272    4.146430    2.463318
     44          6           0        0.972272    3.467635    1.224029
     45          6           0        0.972272    1.333648    2.463317
     46          6           0        0.972272    2.012442    1.224029
     47          1           0        0.972272    5.233801    4.933260
     48          1           0        0.972272    5.232147    2.463929
     49          1           0        0.972272    0.247932    2.463929
     50          1           0        0.972272    0.246277    4.933260
     51          1           0        0.972272    1.494743    7.052528
     52          1           0        0.972272    3.985334    7.052528
     53          6           0        0.972272    4.146925    0.000000
     54          6           0        0.972272    3.467635   -1.224029
     55          6           0        0.972272    1.333153    0.000000
     56          6           0        0.972272    2.012442   -1.224029
     57          1           0        0.972272    5.232548    0.000000
     58          1           0        0.972272    0.247531    0.000000
     59          6           0        0.972272    4.146430   -2.463318
     60          6           0        0.972272    3.466871   -3.671276
     61          6           0        0.972272    1.333648   -2.463317
     62          6           0        0.972272    2.013207   -3.671276
     63          1           0        0.972272    5.232147   -2.463929
     64          1           0        0.972272    0.247932   -2.463929
     65          6           0        0.972272    4.148772   -4.933593
     66          6           0        0.972272    3.456085   -6.106357
     67          6           0        0.972272    1.331305   -4.933593
     68          6           0        0.972272    2.023992   -6.106357
     69          1           0        0.972272    5.233801   -4.933260
     70          1           0        0.972272    3.985334   -7.052528
     71          1           0        0.972272    1.494743   -7.052528
     72          1           0        0.972272    0.246277   -4.933260
 ---------------------------------------------------------------------
 Rotational constants (GHZ):           0.0924635           0.0563744           0.0369794
 Leave Link  202 at Wed Sep 27 16:37:42 2023, MaxMem=  3221225472 cpu:               0.6 elap:               0.0
 (Enter /home/center/opt/aarch64/apps/gaussian16/c01/g16/l122.exe)
 Counterpoise: doing full-system calculation.
 Leave Link  122 at Wed Sep 27 16:37:44 2023, MaxMem=  3221225472 cpu:               0.2 elap:               0.0
 (Enter /home/center/opt/aarch64/apps/gaussian16/c01/g16/l301.exe)
 Standard basis: 6-311G(d,p) (5D, 7F)
 Ernie: Thresh=  0.10000D-02 Tol=  0.10000D-05 Strict=F.
 There are   528 symmetry adapted cartesian basis functions of A'  symmetry.
 There are   476 symmetry adapted cartesian basis functions of A"  symmetry.
 There are   504 symmetry adapted basis functions of A'  symmetry.
 There are   456 symmetry adapted basis functions of A"  symmetry.
   960 basis functions,  1632 primitive gaussians,  1004 cartesian basis functions
   146 alpha electrons      146 beta electrons
       nuclear repulsion energy      4528.7212841778 Hartrees.
 IExCor=  402 DFT=T Ex+Corr=B3LYP ExCW=0 ScaHFX=  0.200000
 ScaDFX=  0.800000  0.720000  1.000000  0.810000 ScalE2=  1.000000  1.000000
 IRadAn=      5 IRanWt=     -1 IRanGd=            0 ICorTp=0 IEmpDi=131
 NAtoms=   72 NActive=   72 NUniq=   40 SFac= 3.24D+00 NAtFMM=   60 NAOKFM=T Big=F
 Integral buffers will be    131072 words long.
 Raffenetti 2 integral format.
 Two-electron integral symmetry is turned on.
 R6Disp:  Grimme-D3 Dispersion energy=       -0.0736243926 Hartrees.
 Nuclear repulsion after empirical dispersion term =     4528.6476597851 Hartrees.
 Leave Link  301 at Wed Sep 27 16:37:47 2023, MaxMem=  3221225472 cpu:               2.1 elap:               0.1
 (Enter /home/center/opt/aarch64/apps/gaussian16/c01/g16/l302.exe)
 NPDir=0 NMtPBC=     1 NCelOv=     1 NCel=       1 NClECP=     1 NCelD=      1
         NCelK=      1 NCelE2=     1 NClLst=     1 CellRange=     0.0.
 One-electron integrals computed using PRISM.
 One-electron integral symmetry used in STVInt
 NBasis=   960 RedAO= T EigKep=  3.88D-05  NBF=   504   456
 NBsUse=   960 1.00D-06 EigRej= -1.00D+00 NBFU=   504   456
 Precomputing XC quadrature grid using
 IXCGrd= 4 IRadAn=           5 IRanWt=          -1 IRanGd=           0 AccXCQ= 0.00D+00.
 Generated NRdTot=       0 NPtTot=           0 NUsed=           0 NTot=          32
 NSgBfM=   989   989   989   989   989 MxSgAt=    72 MxSgA2=    72.
 Leave Link  302 at Wed Sep 27 16:37:51 2023, MaxMem=  3221225472 cpu:              63.8 elap:               2.0
 (Enter /home/center/opt/aarch64/apps/gaussian16/c01/g16/l303.exe)
 DipDrv:  MaxL=1.
 Leave Link  303 at Wed Sep 27 16:37:54 2023, MaxMem=  3221225472 cpu:              13.7 elap:               0.4
 (Enter /home/center/opt/aarch64/apps/gaussian16/c01/g16/l401.exe)
 ExpMin= 1.03D-01 ExpMax= 4.56D+03 ExpMxC= 6.82D+02 IAcc=3 IRadAn=         5 AccDes= 0.00D+00
 Harris functional with IExCor=  402 and IRadAn=       5 diagonalized for initial guess.
 HarFok:  IExCor=  402 AccDes= 0.00D+00 IRadAn=         5 IDoV= 1 UseB2=F ITyADJ=14
 ICtDFT=  3500011 ScaDFX=  1.000000  1.000000  1.000000  1.000000
 FoFCou: FMM=F IPFlag=           0 FMFlag=      100000 FMFlg1=        2000
         NFxFlg=           0 DoJE=T BraDBF=F KetDBF=T FulRan=T
         wScrn=  0.000000 ICntrl=       500 IOpCl=  0 I1Cent=   200000004 NGrid=           0
         NMat0=    1 NMatS0=      1 NMatT0=    0 NMatD0=    1 NMtDS0=    0 NMtDT0=    0
 Petite list used in FoFCou.
 Harris En= -1694.13642759489    
 JPrj=0 DoOrth=F DoCkMO=F.
 Initial guess orbital symmetries:
       Occupied  (A") (A') (A") (A') (A') (A") (A') (A") (A") (A')
                 (A") (A') (A") (A') (A") (A') (A") (A') (A') (A")
                 (A") (A') (A") (A') (A') (A') (A') (A') (A") (A")
                 (A') (A') (A") (A') (A") (A') (A") (A') (A") (A')
                 (A') (A") (A') (A") (A') (A') (A") (A") (A') (A')
                 (A") (A") (A') (A') (A') (A') (A") (A") (A') (A')
                 (A") (A") (A") (A") (A') (A') (A') (A') (A") (A")
                 (A") (A") (A') (A') (A") (A") (A') (A') (A') (A')
                 (A') (A') (A") (A") (A") (A") (A") (A') (A") (A')
                 (A') (A') (A") (A") (A') (A') (A') (A') (A") (A")
                 (A') (A') (A") (A") (A") (A") (A') (A') (A') (A')
                 (A") (A") (A') (A') (A") (A") (A') (A') (A") (A")
                 (A") (A") (A') (A') (A') (A') (A") (A") (A') (A')
                 (A") (A") (A') (A') (A") (A") (A') (A') (A') (A')
                 (A") (A") (A") (A") (A') (A')
       Virtual   (A') (A') (A") (A") (A") (A") (A') (A') (A') (A')
                 (A") (A") (A') (A') (A") (A") (A') (A") (A') (A')
                 (A') (A') (A") (A') (A") (A') (A") (A") (A') (A')
                 (A") (A') (A") (A") (A') (A") (A') (A") (A') (A')
                 (A") (A') (A") (A") (A') (A') (A") (A') (A') (A')
                 (A') (A") (A') (A") (A') (A') (A') (A") (A") (A')
                 (A") (A") (A") (A") (A') (A') (A") (A") (A") (A')
                 (A') (A") (A') (A') (A") (A') (A") (A") (A') (A")
                 (A') (A') (A') (A") (A') (A') (A") (A') (A') (A")
                 (A") (A") (A') (A') (A") (A') (A") (A') (A") (A")
                 (A") (A') (A') (A") (A") (A') (A') (A') (A") (A')
                 (A') (A') (A') (A") (A') (A") (A') (A") (A') (A")
                 (A') (A") (A') (A") (A") (A") (A') (A") (A') (A")
                 (A') (A") (A") (A') (A") (A") (A') (A') (A") (A')
                 (A') (A") (A') (A') (A') (A") (A') (A') (A") (A')
                 (A') (A") (A') (A") (A') (A") (A') (A") (A') (A")
                 (A') (A") (A") (A") (A') (A') (A") (A') (A') (A")
                 (A") (A') (A") (A') (A") (A') (A') (A") (A') (A")
                 (A') (A") (A") (A') (A') (A") (A') (A') (A') (A')
                 (A") (A') (A") (A") (A') (A") (A') (A') (A") (A")
                 (A') (A") (A') (A") (A') (A") (A') (A') (A') (A")
                 (A") (A') (A") (A") (A') (A') (A") (A") (A") (A')
                 (A') (A") (A") (A') (A") (A") (A') (A') (A') (A')
                 (A") (A') (A') (A") (A") (A') (A') (A") (A') (A")
                 (A") (A") (A') (A') (A") (A') (A') (A") (A') (A')
                 (A") (A") (A') (A") (A") (A') (A') (A") (A") (A')
                 (A') (A') (A") (A') (A") (A") (A") (A') (A') (A")
                 (A') (A") (A") (A") (A") (A') (A') (A') (A") (A")
                 (A') (A") (A') (A') (A') (A') (A") (A") (A') (A")
                 (A') (A') (A") (A') (A") (A') (A") (A") (A") (A")
                 (A") (A') (A') (A") (A') (A') (A") (A') (A') (A')
                 (A') (A") (A") (A') (A") (A") (A") (A') (A') (A")
                 (A') (A') (A") (A') (A') (A') (A") (A") (A") (A')
                 (A") (A") (A') (A") (A') (A') (A") (A') (A") (A')
                 (A") (A') (A') (A") (A") (A') (A") (A') (A') (A')
                 (A") (A') (A") (A") (A') (A') (A') (A") (A') (A")
                 (A') (A') (A') (A") (A") (A') (A") (A") (A") (A")
                 (A") (A') (A") (A") (A') (A') (A") (A') (A') (A')
                 (A") (A') (A') (A") (A') (A') (A') (A") (A') (A")
                 (A") (A') (A') (A") (A') (A") (A') (A") (A") (A")
                 (A') (A') (A") (A') (A") (A') (A') (A") (A") (A')
                 (A') (A") (A') (A') (A") (A') (A") (A') (A") (A')
                 (A') (A') (A') (A") (A') (A") (A') (A") (A') (A")
                 (A") (A") (A") (A') (A") (A') (A") (A') (A') (A")
                 (A") (A") (A') (A") (A') (A") (A') (A") (A') (A")
                 (A') (A') (A') (A') (A") (A") (A') (A') (A") (A")
                 (A") (A') (A") (A') (A') (A") (A") (A') (A") (A')
                 (A") (A") (A') (A') (A") (A") (A') (A') (A") (A')
                 (A") (A') (A') (A') (A") (A') (A") (A") (A") (A')
                 (A") (A') (A") (A") (A") (A") (A") (A") (A') (A')
                 (A') (A") (A") (A') (A') (A') (A') (A') (A") (A')
                 (A") (A') (A') (A') (A") (A") (A") (A') (A") (A')
                 (A") (A') (A") (A') (A") (A") (A') (A') (A") (A')
                 (A") (A') (A') (A') (A") (A") (A') (A") (A") (A')
                 (A") (A") (A') (A') (A') (A") (A') (A") (A") (A")
                 (A') (A") (A') (A") (A") (A') (A") (A') (A') (A')
                 (A") (A') (A') (A") (A') (A") (A") (A') (A') (A")
                 (A') (A") (A") (A") (A') (A') (A") (A') (A") (A')
                 (A') (A') (A') (A') (A") (A") (A") (A') (A') (A')
                 (A") (A') (A') (A") (A') (A') (A') (A") (A") (A")
                 (A") (A') (A") (A') (A') (A") (A') (A") (A") (A')
                 (A") (A') (A') (A") (A") (A') (A') (A") (A') (A")
                 (A") (A') (A") (A") (A') (A') (A") (A') (A") (A')
                 (A') (A') (A') (A") (A') (A') (A") (A') (A") (A")
                 (A") (A") (A") (A') (A") (A') (A") (A') (A') (A")
                 (A') (A') (A') (A') (A") (A') (A") (A') (A") (A')
                 (A') (A") (A") (A") (A') (A") (A') (A') (A") (A')
                 (A') (A") (A") (A') (A") (A') (A") (A") (A') (A')
                 (A") (A") (A') (A') (A') (A') (A") (A") (A") (A")
                 (A') (A') (A") (A') (A') (A') (A") (A") (A") (A')
                 (A') (A') (A") (A") (A') (A") (A') (A") (A') (A")
                 (A') (A") (A") (A") (A') (A') (A') (A') (A") (A")
                 (A') (A') (A") (A") (A') (A') (A") (A') (A') (A")
                 (A') (A") (A') (A") (A") (A') (A") (A') (A') (A')
                 (A") (A") (A') (A') (A") (A") (A') (A') (A') (A')
                 (A") (A") (A') (A') (A") (A") (A') (A') (A") (A")
                 (A") (A") (A') (A') (A") (A") (A') (A") (A') (A")
                 (A') (A') (A") (A") (A') (A') (A') (A') (A") (A")
                 (A") (A") (A') (A') (A") (A") (A') (A') (A') (A')
                 (A") (A") (A") (A") (A') (A') (A') (A') (A") (A")
                 (A') (A') (A") (A") (A') (A') (A") (A") (A') (A')
                 (A') (A") (A') (A")
 The electronic state of the initial guess is 1-A'.
 Leave Link  401 at Wed Sep 27 16:37:58 2023, MaxMem=  3221225472 cpu:             101.4 elap:               2.5
 (Enter /home/center/opt/aarch64/apps/gaussian16/c01/g16/l502.exe)
 Integral symmetry usage will be decided dynamically.
 Closed shell SCF:
 Using DIIS extrapolation, IDIIS=  1040.
 NGot=  3221225472 LenX=  3219153746 LenY=  3218144726
 Requested convergence on RMS density matrix=1.00D-08 within 128 cycles.
 Requested convergence on MAX density matrix=1.00D-06.
 Requested convergence on             energy=1.00D-06.
 No special actions if energy rises.
 Fock matrices will be formed incrementally for  20 cycles.
 Integral accuracy reduced to 1.0D-05 until final iterations.

 Cycle   1  Pass 0  IDiag  1:
 FoFJK:  IHMeth= 1 ICntrl=       0 DoSepK=F KAlg= 0 I1Cent=           0 FoldK=F
 IRaf= 540000000 NMat=       1 IRICut=       1 DoRegI=T DoRafI=F ISym2E= 1 IDoP0=0 IntGTp=1.
 FoFCou: FMM=F IPFlag=           0 FMFlag=      100000 FMFlg1=        2000
         NFxFlg=           0 DoJE=F BraDBF=F KetDBF=F FulRan=T
         wScrn=  0.000000 ICntrl=         0 IOpCl=  0 I1Cent=           0 NGrid=           0
         NMat0=    1 NMatS0=      1 NMatT0=    0 NMatD0=    1 NMtDS0=    0 NMtDT0=    0
 Petite list used in FoFCou.
 E= -1693.15954357362    
 DIIS: error= 4.49D-02 at cycle   1 NSaved=   1.
 NSaved= 1 IEnMin= 1 EnMin= -1693.15954357362     IErMin= 1 ErrMin= 4.49D-02
 ErrMax= 4.49D-02  0.00D+00 EMaxC= 1.00D-01 BMatC= 9.04D-01 BMatP= 9.04D-01
 IDIUse=3 WtCom= 5.51D-01 WtEn= 4.49D-01
 Coeff-Com:  0.100D+01
 Coeff-En:   0.100D+01
 Coeff:      0.100D+01
 Gap=     0.070 Goal=   None    Shift=    0.000
 GapD=    0.070 DampG=0.500 DampE=0.500 DampFc=0.2500 IDamp=-1.
 Damping current iteration by 2.50D-01
 RMSDP=1.75D-03 MaxDP=8.42D-02              OVMax= 1.59D-01

 Cycle   2  Pass 0  IDiag  1:
 RMSU=  4.24D-04    CP:  9.82D-01
 E= -1693.47144407469     Delta-E=       -0.311900501067 Rises=F Damp=T
 DIIS: error= 2.61D-02 at cycle   2 NSaved=   2.
 NSaved= 2 IEnMin= 2 EnMin= -1693.47144407469     IErMin= 2 ErrMin= 2.61D-02
 ErrMax= 2.61D-02  0.00D+00 EMaxC= 1.00D-01 BMatC= 2.99D-01 BMatP= 9.04D-01
 IDIUse=3 WtCom= 7.39D-01 WtEn= 2.61D-01
 Coeff-Com: -0.120D+01 0.220D+01
 Coeff-En:   0.000D+00 0.100D+01
 Coeff:     -0.887D+00 0.189D+01
 Gap=     0.068 Goal=   None    Shift=    0.000
 RMSDP=7.01D-04 MaxDP=3.32D-02 DE=-3.12D-01 OVMax= 8.14D-02

 Cycle   3  Pass 0  IDiag  1:
 RMSU=  4.44D-04    CP:  9.56D-01  2.23D+00
 E= -1694.04134456999     Delta-E=       -0.569900495301 Rises=F Damp=F
 DIIS: error= 5.17D-03 at cycle   3 NSaved=   3.
 NSaved= 3 IEnMin= 3 EnMin= -1694.04134456999     IErMin= 3 ErrMin= 5.17D-03
 ErrMax= 5.17D-03  0.00D+00 EMaxC= 1.00D-01 BMatC= 1.18D-02 BMatP= 2.99D-01
 IDIUse=3 WtCom= 9.48D-01 WtEn= 5.17D-02
 Coeff-Com: -0.252D+00 0.520D+00 0.733D+00
 Coeff-En:   0.000D+00 0.000D+00 0.100D+01
 Coeff:     -0.239D+00 0.493D+00 0.747D+00
 Gap=     0.071 Goal=   None    Shift=    0.000
 RMSDP=2.33D-04 MaxDP=1.25D-02 DE=-5.70D-01 OVMax= 8.64D-02

 Cycle   4  Pass 0  IDiag  1:
 RMSU=  1.97D-04    CP:  9.57D-01  2.15D+00  7.32D-01
 E= -1694.03752924061     Delta-E=        0.003815329380 Rises=F Damp=F
 DIIS: error= 7.56D-03 at cycle   4 NSaved=   4.
 NSaved= 4 IEnMin= 3 EnMin= -1694.04134456999     IErMin= 3 ErrMin= 5.17D-03
 ErrMax= 7.56D-03  0.00D+00 EMaxC= 1.00D-01 BMatC= 1.34D-02 BMatP= 1.18D-02
 IDIUse=3 WtCom= 1.03D-01 WtEn= 8.97D-01
 Coeff-Com: -0.424D-01 0.114D+00 0.519D+00 0.409D+00
 Coeff-En:   0.000D+00 0.000D+00 0.557D+00 0.443D+00
 Coeff:     -0.438D-02 0.117D-01 0.553D+00 0.440D+00
 Gap=     0.069 Goal=   None    Shift=    0.000
 RMSDP=1.44D-04 MaxDP=8.99D-03 DE= 3.82D-03 OVMax= 7.61D-02

 Cycle   5  Pass 0  IDiag  1:
 RMSU=  8.45D-05    CP:  9.57D-01  2.15D+00  8.07D-01  4.34D-01
 E= -1694.05227850233     Delta-E=       -0.014749261716 Rises=F Damp=F
 DIIS: error= 2.34D-03 at cycle   5 NSaved=   5.
 NSaved= 5 IEnMin= 5 EnMin= -1694.05227850233     IErMin= 5 ErrMin= 2.34D-03
 ErrMax= 2.34D-03  0.00D+00 EMaxC= 1.00D-01 BMatC= 1.11D-03 BMatP= 1.18D-02
 IDIUse=3 WtCom= 9.77D-01 WtEn= 2.34D-02
 Coeff-Com: -0.167D-01 0.360D-01 0.248D+00 0.253D+00 0.479D+00
 Coeff-En:   0.000D+00 0.000D+00 0.000D+00 0.440D-01 0.956D+00
 Coeff:     -0.163D-01 0.352D-01 0.242D+00 0.249D+00 0.490D+00
 Gap=     0.069 Goal=   None    Shift=    0.000
 RMSDP=5.08D-05 MaxDP=3.48D-03 DE=-1.47D-02 OVMax= 3.26D-02

 Cycle   6  Pass 0  IDiag  1:
 RMSU=  2.45D-05    CP:  9.57D-01  2.16D+00  8.14D-01  5.23D-01  5.23D-01
 E= -1694.05330632315     Delta-E=       -0.001027820823 Rises=F Damp=F
 DIIS: error= 1.37D-03 at cycle   6 NSaved=   6.
 NSaved= 6 IEnMin= 6 EnMin= -1694.05330632315     IErMin= 6 ErrMin= 1.37D-03
 ErrMax= 1.37D-03  0.00D+00 EMaxC= 1.00D-01 BMatC= 2.48D-04 BMatP= 1.11D-03
 IDIUse=3 WtCom= 9.86D-01 WtEn= 1.37D-02
 Coeff-Com: -0.474D-02 0.728D-02 0.100D+00 0.119D+00 0.354D+00 0.425D+00
 Coeff-En:   0.000D+00 0.000D+00 0.000D+00 0.000D+00 0.196D+00 0.804D+00
 Coeff:     -0.467D-02 0.718D-02 0.987D-01 0.117D+00 0.351D+00 0.430D+00
 Gap=     0.069 Goal=   None    Shift=    0.000
 RMSDP=1.98D-05 MaxDP=1.66D-03 DE=-1.03D-03 OVMax= 1.47D-02

 Cycle   7  Pass 0  IDiag  1:
 RMSU=  9.32D-06    CP:  9.57D-01  2.16D+00  8.17D-01  5.03D-01  5.97D-01
                    CP:  3.58D-01
 E= -1694.05357790024     Delta-E=       -0.000271577086 Rises=F Damp=F
 DIIS: error= 3.69D-04 at cycle   7 NSaved=   7.
 NSaved= 7 IEnMin= 7 EnMin= -1694.05357790024     IErMin= 7 ErrMin= 3.69D-04
 ErrMax= 3.69D-04  0.00D+00 EMaxC= 1.00D-01 BMatC= 2.23D-05 BMatP= 2.48D-04
 IDIUse=3 WtCom= 9.96D-01 WtEn= 3.69D-03
 Coeff-Com: -0.155D-02 0.173D-02 0.539D-01 0.657D-01 0.213D+00 0.300D+00
 Coeff-Com:  0.367D+00
 Coeff-En:   0.000D+00 0.000D+00 0.000D+00 0.000D+00 0.000D+00 0.447D-01
 Coeff-En:   0.955D+00
 Coeff:     -0.154D-02 0.172D-02 0.537D-01 0.655D-01 0.212D+00 0.299D+00
 Coeff:      0.369D+00
 Gap=     0.069 Goal=   None    Shift=    0.000
 RMSDP=5.86D-06 MaxDP=3.82D-04 DE=-2.72D-04 OVMax= 3.30D-03

 Initial convergence to 1.0D-05 achieved.  Increase integral accuracy.
 Cycle   8  Pass 1  IDiag  1:
 E= -1694.05323312528     Delta-E=        0.000344774956 Rises=F Damp=F
 DIIS: error= 9.60D-04 at cycle   1 NSaved=   1.
 NSaved= 1 IEnMin= 1 EnMin= -1694.05323312528     IErMin= 1 ErrMin= 9.60D-04
 ErrMax= 9.60D-04  0.00D+00 EMaxC= 1.00D-01 BMatC= 5.00D-05 BMatP= 5.00D-05
 IDIUse=3 WtCom= 9.90D-01 WtEn= 9.60D-03
 Coeff-Com:  0.100D+01
 Coeff-En:   0.100D+01
 Coeff:      0.100D+01
 Gap=     0.069 Goal=   None    Shift=    0.000
 RMSDP=5.86D-06 MaxDP=3.82D-04 DE= 3.45D-04 OVMax= 2.33D-03

 Cycle   9  Pass 1  IDiag  1:
 RMSU=  3.55D-04    CP:  9.97D-01
 E= -1694.05328052139     Delta-E=       -0.000047396111 Rises=F Damp=F
 DIIS: error= 2.04D-04 at cycle   2 NSaved=   2.
 NSaved= 2 IEnMin= 2 EnMin= -1694.05328052139     IErMin= 2 ErrMin= 2.04D-04
 ErrMax= 2.04D-04  0.00D+00 EMaxC= 1.00D-01 BMatC= 5.13D-06 BMatP= 5.00D-05
 IDIUse=3 WtCom= 9.98D-01 WtEn= 2.04D-03
 Coeff-Com:  0.114D+00 0.886D+00
 Coeff-En:   0.000D+00 0.100D+01
 Coeff:      0.114D+00 0.886D+00
 Gap=     0.069 Goal=   None    Shift=    0.000
 RMSDP=9.11D-06 MaxDP=5.71D-04 DE=-4.74D-05 OVMax= 4.97D-03

 Cycle  10  Pass 1  IDiag  1:
 RMSU=  8.56D-06    CP:  9.97D-01  1.01D+00
 E= -1694.05324949540     Delta-E=        0.000031025987 Rises=F Damp=F
 DIIS: error= 5.18D-04 at cycle   3 NSaved=   3.
 NSaved= 3 IEnMin= 2 EnMin= -1694.05328052139     IErMin= 2 ErrMin= 2.04D-04
 ErrMax= 5.18D-04  0.00D+00 EMaxC= 1.00D-01 BMatC= 2.95D-05 BMatP= 5.13D-06
 IDIUse=3 WtCom= 3.05D-01 WtEn= 6.95D-01
 Coeff-Com: -0.260D-02 0.709D+00 0.294D+00
 Coeff-En:   0.000D+00 0.782D+00 0.218D+00
 Coeff:     -0.794D-03 0.760D+00 0.241D+00
 Gap=     0.069 Goal=   None    Shift=    0.000
 RMSDP=4.96D-06 MaxDP=3.17D-04 DE= 3.10D-05 OVMax= 2.95D-03

 Cycle  11  Pass 1  IDiag  1:
 RMSU=  9.18D-07    CP:  9.97D-01  1.01D+00  4.36D-01
 E= -1694.05328540476     Delta-E=       -0.000035909351 Rises=F Damp=F
 DIIS: error= 8.92D-05 at cycle   4 NSaved=   4.
 NSaved= 4 IEnMin= 4 EnMin= -1694.05328540476     IErMin= 4 ErrMin= 8.92D-05
 ErrMax= 8.92D-05  0.00D+00 EMaxC= 1.00D-01 BMatC= 1.24D-06 BMatP= 5.13D-06
 IDIUse=1 WtCom= 1.00D+00 WtEn= 0.00D+00
 Coeff-Com: -0.410D-02 0.453D+00 0.101D+00 0.449D+00
 Coeff:     -0.410D-02 0.453D+00 0.101D+00 0.449D+00
 Gap=     0.069 Goal=   None    Shift=    0.000
 RMSDP=1.20D-06 MaxDP=7.97D-05 DE=-3.59D-05 OVMax= 6.22D-04

 Cycle  12  Pass 1  IDiag  1:
 RMSU=  3.89D-07    CP:  9.97D-01  1.01D+00  3.05D-01  8.37D-01
 E= -1694.05328687362     Delta-E=       -0.000001468860 Rises=F Damp=F
 DIIS: error= 5.18D-06 at cycle   5 NSaved=   5.
 NSaved= 5 IEnMin= 5 EnMin= -1694.05328687362     IErMin= 5 ErrMin= 5.18D-06
 ErrMax= 5.18D-06  0.00D+00 EMaxC= 1.00D-01 BMatC= 3.51D-09 BMatP= 1.24D-06
 IDIUse=1 WtCom= 1.00D+00 WtEn= 0.00D+00
 Coeff-Com: -0.231D-02 0.248D+00 0.526D-01 0.261D+00 0.440D+00
 Coeff:     -0.231D-02 0.248D+00 0.526D-01 0.261D+00 0.440D+00
 Gap=     0.069 Goal=   None    Shift=    0.000
 RMSDP=9.27D-08 MaxDP=3.25D-06 DE=-1.47D-06 OVMax= 2.47D-05

 Cycle  13  Pass 1  IDiag  1:
 RMSU=  8.54D-08    CP:  9.97D-01  1.01D+00  3.05D-01  8.51D-01  9.16D-01
 E= -1694.05328687765     Delta-E=       -0.000000004032 Rises=F Damp=F
 DIIS: error= 2.08D-06 at cycle   6 NSaved=   6.
 NSaved= 6 IEnMin= 6 EnMin= -1694.05328687765     IErMin= 6 ErrMin= 2.08D-06
 ErrMax= 2.08D-06  0.00D+00 EMaxC= 1.00D-01 BMatC= 6.18D-10 BMatP= 3.51D-09
 IDIUse=1 WtCom= 1.00D+00 WtEn= 0.00D+00
 Coeff-Com: -0.880D-03 0.919D-01 0.186D-01 0.101D+00 0.294D+00 0.495D+00
 Coeff:     -0.880D-03 0.919D-01 0.186D-01 0.101D+00 0.294D+00 0.495D+00
 Gap=     0.069 Goal=   None    Shift=    0.000
 RMSDP=2.44D-08 MaxDP=1.12D-06 DE=-4.03D-09 OVMax= 7.51D-06

 Cycle  14  Pass 1  IDiag  1:
 RMSU=  1.75D-08    CP:  9.97D-01  1.01D+00  3.05D-01  8.50D-01  9.38D-01
                    CP:  8.37D-01
 E= -1694.05328687832     Delta-E=       -0.000000000668 Rises=F Damp=F
 DIIS: error= 1.60D-07 at cycle   7 NSaved=   7.
 NSaved= 7 IEnMin= 7 EnMin= -1694.05328687832     IErMin= 7 ErrMin= 1.60D-07
 ErrMax= 1.60D-07  0.00D+00 EMaxC= 1.00D-01 BMatC= 1.35D-11 BMatP= 6.18D-10
 IDIUse=1 WtCom= 1.00D+00 WtEn= 0.00D+00
 Coeff-Com: -0.118D-03 0.116D-01 0.219D-02 0.140D-01 0.733D-01 0.179D+00
 Coeff-Com:  0.720D+00
 Coeff:     -0.118D-03 0.116D-01 0.219D-02 0.140D-01 0.733D-01 0.179D+00
 Coeff:      0.720D+00
 Gap=     0.069 Goal=   None    Shift=    0.000
 RMSDP=7.58D-09 MaxDP=3.46D-07 DE=-6.68D-10 OVMax= 1.61D-06

 SCF Done:  E(RB3LYP) =  -1694.05328688     A.U. after   14 cycles
            NFock= 14  Conv=0.76D-08     -V/T= 2.0044
 KE= 1.686680527627D+03 PE=-1.298769623782D+04 EE= 5.078314763524D+03
 Leave Link  502 at Wed Sep 27 16:39:32 2023, MaxMem=  3221225472 cpu:            3288.1 elap:              91.2
 (Enter /home/center/opt/aarch64/apps/gaussian16/c01/g16/l601.exe)
 Copying SCF densities to generalized density rwf, IOpCl= 0 IROHF=0.

 **********************************************************************

            Population analysis using the SCF Density.

 **********************************************************************

 Orbital symmetries:
       Occupied  (A") (A') (A') (A") (A") (A') (A") (A') (A') (A')
                 (A") (A') (A") (A') (A") (A') (A") (A') (A") (A')
                 (A") (A') (A") (A') (A") (A') (A') (A") (A") (A')
                 (A") (A') (A') (A") (A') (A') (A") (A') (A") (A')
                 (A") (A') (A") (A') (A') (A') (A") (A") (A') (A')
                 (A") (A") (A') (A') (A') (A") (A') (A") (A') (A')
                 (A") (A") (A") (A") (A') (A') (A') (A') (A") (A")
                 (A") (A") (A') (A") (A') (A') (A") (A') (A') (A')
                 (A') (A") (A") (A') (A") (A") (A') (A") (A') (A")
                 (A') (A') (A') (A") (A") (A') (A") (A") (A') (A')
                 (A') (A") (A') (A') (A') (A") (A') (A") (A') (A')
                 (A") (A') (A") (A") (A") (A") (A") (A") (A') (A')
                 (A') (A') (A') (A') (A") (A") (A') (A") (A") (A")
                 (A') (A") (A') (A') (A") (A") (A') (A') (A') (A')
                 (A") (A") (A") (A") (A') (A')
       Virtual   (A') (A') (A") (A") (A") (A") (A') (A') (A') (A")
                 (A') (A') (A") (A') (A") (A') (A') (A') (A") (A")
                 (A') (A') (A") (A') (A") (A") (A') (A") (A') (A")
                 (A") (A') (A") (A') (A') (A") (A") (A') (A") (A')
                 (A') (A') (A") (A') (A') (A") (A") (A") (A') (A")
                 (A') (A') (A') (A') (A') (A') (A') (A") (A') (A")
                 (A") (A") (A") (A") (A') (A') (A") (A") (A') (A")
                 (A') (A') (A") (A') (A") (A') (A") (A") (A') (A")
                 (A') (A') (A') (A') (A') (A") (A') (A") (A") (A')
                 (A') (A") (A') (A') (A") (A") (A') (A") (A") (A")
                 (A') (A') (A") (A') (A') (A") (A') (A") (A') (A")
                 (A") (A") (A') (A') (A') (A") (A") (A") (A') (A')
                 (A') (A") (A') (A') (A') (A') (A') (A") (A") (A")
                 (A') (A') (A") (A') (A') (A") (A') (A') (A") (A')
                 (A") (A') (A") (A') (A") (A') (A") (A") (A') (A")
                 (A") (A') (A") (A') (A") (A') (A") (A') (A') (A")
                 (A') (A') (A") (A") (A') (A') (A") (A") (A') (A")
                 (A") (A') (A") (A') (A') (A') (A') (A') (A") (A")
                 (A') (A') (A") (A") (A") (A') (A') (A") (A") (A')
                 (A") (A') (A") (A") (A') (A') (A") (A') (A") (A')
                 (A') (A") (A') (A") (A') (A") (A') (A') (A") (A')
                 (A") (A') (A') (A") (A") (A') (A") (A') (A") (A')
                 (A") (A") (A') (A") (A") (A') (A') (A') (A") (A')
                 (A') (A") (A") (A') (A") (A') (A") (A') (A') (A")
                 (A") (A') (A") (A') (A') (A") (A') (A") (A') (A")
                 (A") (A') (A') (A") (A") (A') (A') (A") (A") (A')
                 (A") (A') (A") (A') (A') (A') (A") (A') (A') (A")
                 (A") (A") (A') (A") (A') (A") (A") (A') (A") (A')
                 (A") (A') (A') (A') (A") (A") (A') (A") (A") (A')
                 (A") (A') (A') (A") (A") (A') (A') (A') (A") (A')
                 (A") (A") (A") (A") (A') (A') (A") (A') (A') (A')
                 (A') (A") (A') (A') (A") (A") (A") (A') (A") (A")
                 (A') (A") (A') (A') (A') (A") (A') (A") (A") (A')
                 (A") (A") (A') (A") (A') (A") (A') (A') (A") (A')
                 (A") (A') (A') (A') (A") (A") (A') (A') (A") (A')
                 (A") (A') (A") (A") (A') (A') (A') (A') (A') (A")
                 (A') (A") (A') (A") (A') (A") (A") (A") (A") (A')
                 (A") (A") (A") (A') (A") (A') (A') (A") (A') (A')
                 (A") (A') (A') (A") (A') (A") (A') (A") (A') (A')
                 (A') (A') (A") (A") (A') (A") (A') (A") (A") (A')
                 (A') (A") (A") (A') (A") (A') (A') (A') (A") (A")
                 (A') (A') (A") (A') (A') (A") (A") (A") (A') (A')
                 (A') (A") (A') (A') (A') (A") (A') (A") (A") (A')
                 (A") (A") (A") (A') (A") (A') (A") (A') (A') (A")
                 (A') (A") (A") (A') (A") (A") (A') (A') (A") (A")
                 (A') (A') (A") (A') (A") (A') (A') (A") (A') (A")
                 (A") (A") (A') (A') (A') (A") (A") (A') (A') (A')
                 (A") (A") (A') (A') (A") (A") (A") (A") (A') (A')
                 (A') (A") (A") (A') (A') (A') (A") (A') (A") (A")
                 (A") (A") (A') (A") (A") (A") (A") (A") (A') (A')
                 (A") (A') (A') (A') (A") (A') (A') (A') (A") (A")
                 (A') (A') (A') (A') (A") (A") (A') (A") (A') (A")
                 (A") (A") (A') (A") (A') (A') (A") (A') (A") (A')
                 (A") (A') (A") (A") (A') (A") (A") (A') (A') (A')
                 (A") (A") (A') (A') (A") (A') (A") (A') (A") (A")
                 (A') (A") (A") (A') (A") (A') (A') (A") (A') (A')
                 (A") (A') (A') (A") (A") (A') (A") (A') (A") (A")
                 (A') (A') (A') (A') (A') (A") (A') (A') (A") (A")
                 (A') (A") (A") (A') (A") (A') (A') (A") (A") (A')
                 (A") (A') (A") (A") (A') (A') (A") (A") (A') (A')
                 (A') (A") (A') (A") (A') (A") (A') (A") (A') (A')
                 (A') (A") (A') (A") (A') (A') (A') (A") (A') (A")
                 (A") (A") (A') (A") (A') (A") (A") (A') (A') (A")
                 (A") (A') (A') (A') (A") (A') (A') (A') (A") (A")
                 (A") (A') (A") (A") (A') (A") (A') (A") (A') (A')
                 (A") (A') (A') (A") (A') (A') (A') (A") (A') (A")
                 (A") (A") (A') (A') (A") (A") (A') (A') (A') (A")
                 (A') (A") (A") (A') (A") (A') (A") (A") (A') (A')
                 (A') (A') (A") (A") (A') (A") (A') (A") (A") (A")
                 (A') (A') (A") (A') (A') (A') (A") (A') (A") (A")
                 (A') (A') (A") (A") (A') (A") (A') (A") (A') (A")
                 (A') (A") (A") (A") (A') (A') (A') (A') (A") (A")
                 (A') (A') (A") (A') (A") (A') (A') (A") (A') (A")
                 (A") (A') (A') (A") (A") (A') (A') (A") (A') (A")
                 (A') (A") (A') (A") (A') (A') (A") (A') (A') (A')
                 (A") (A') (A") (A') (A") (A") (A') (A') (A") (A")
                 (A") (A') (A") (A") (A') (A") (A') (A") (A') (A")
                 (A') (A') (A") (A") (A') (A') (A') (A') (A") (A")
                 (A") (A") (A') (A') (A") (A') (A") (A') (A') (A')
                 (A") (A") (A") (A") (A') (A') (A') (A") (A') (A")
                 (A') (A') (A") (A') (A") (A") (A') (A') (A") (A')
                 (A') (A") (A') (A")
 The electronic state is 1-A'.
 Alpha  occ. eigenvalues --  -10.19474 -10.19474 -10.19394 -10.19393 -10.19389
 Alpha  occ. eigenvalues --  -10.19389 -10.19285 -10.19285 -10.18491 -10.18448
 Alpha  occ. eigenvalues --  -10.18431 -10.18431 -10.18417 -10.18417 -10.18391
 Alpha  occ. eigenvalues --  -10.18391 -10.18320 -10.18320 -10.18294 -10.18294
 Alpha  occ. eigenvalues --  -10.18253 -10.18253 -10.18201 -10.18201 -10.18199
 Alpha  occ. eigenvalues --  -10.18199 -10.18181 -10.18181 -10.18110 -10.18110
 Alpha  occ. eigenvalues --  -10.17301 -10.17301 -10.17266 -10.17254 -10.17254
 Alpha  occ. eigenvalues --  -10.17233 -10.17233 -10.17190 -10.17181 -10.17181
 Alpha  occ. eigenvalues --  -10.17158 -10.17157 -10.17091 -10.17091  -0.89853
 Alpha  occ. eigenvalues --   -0.88659  -0.88365  -0.87204  -0.86043  -0.84897
 Alpha  occ. eigenvalues --   -0.82906  -0.81767  -0.80333  -0.79123  -0.79011
 Alpha  occ. eigenvalues --   -0.78814  -0.77876  -0.77638  -0.76484  -0.75324
 Alpha  occ. eigenvalues --   -0.74746  -0.73605  -0.73392  -0.72238  -0.69692
 Alpha  occ. eigenvalues --   -0.68526  -0.67833  -0.66691  -0.63222  -0.62850
 Alpha  occ. eigenvalues --   -0.62068  -0.61727  -0.61608  -0.60454  -0.60394
 Alpha  occ. eigenvalues --   -0.59784  -0.59266  -0.58625  -0.58170  -0.57040
 Alpha  occ. eigenvalues --   -0.53191  -0.53055  -0.52770  -0.52058  -0.51896
 Alpha  occ. eigenvalues --   -0.51648  -0.50131  -0.48988  -0.48975  -0.47884
 Alpha  occ. eigenvalues --   -0.47631  -0.46604  -0.46507  -0.46067  -0.45963
 Alpha  occ. eigenvalues --   -0.45419  -0.44904  -0.44821  -0.44406  -0.43652
 Alpha  occ. eigenvalues --   -0.43293  -0.43049  -0.42527  -0.42300  -0.42048
 Alpha  occ. eigenvalues --   -0.41894  -0.41870  -0.41190  -0.41105  -0.40888
 Alpha  occ. eigenvalues --   -0.40876  -0.40718  -0.40095  -0.40014  -0.39763
 Alpha  occ. eigenvalues --   -0.38932  -0.38666  -0.37533  -0.37243  -0.36805
 Alpha  occ. eigenvalues --   -0.36097  -0.36021  -0.35726  -0.34846  -0.34583
 Alpha  occ. eigenvalues --   -0.34279  -0.33544  -0.33437  -0.33402  -0.33152
 Alpha  occ. eigenvalues --   -0.32695  -0.32300  -0.31740  -0.30933  -0.30108
 Alpha  occ. eigenvalues --   -0.29006  -0.28890  -0.27783  -0.27110  -0.25972
 Alpha  occ. eigenvalues --   -0.24861  -0.23729  -0.23087  -0.21931  -0.18381
 Alpha  occ. eigenvalues --   -0.17187
 Alpha virt. eigenvalues --   -0.10284  -0.09091  -0.04989  -0.03820  -0.03273
 Alpha virt. eigenvalues --   -0.02111  -0.00719   0.00492   0.01551   0.01644
 Alpha virt. eigenvalues --    0.02227   0.02692   0.02996   0.03653   0.03894
 Alpha virt. eigenvalues --    0.03948   0.04418   0.05291   0.05517   0.05822
 Alpha virt. eigenvalues --    0.05947   0.06468   0.07160   0.07649   0.07715
 Alpha virt. eigenvalues --    0.07894   0.08783   0.08925   0.09168   0.09443
 Alpha virt. eigenvalues --    0.10166   0.10354   0.10890   0.10965   0.11239
 Alpha virt. eigenvalues --    0.11954   0.12633   0.12968   0.13276   0.14123
 Alpha virt. eigenvalues --    0.14171   0.14778   0.15673   0.15699   0.17723
 Alpha virt. eigenvalues --    0.17876   0.18286   0.18778   0.19250   0.19560
 Alpha virt. eigenvalues --    0.19609   0.20195   0.22360   0.22570   0.23586
 Alpha virt. eigenvalues --    0.23750   0.24036   0.24118   0.25140   0.25149
 Alpha virt. eigenvalues --    0.25801   0.26157   0.27052   0.27222   0.27656
 Alpha virt. eigenvalues --    0.27822   0.28127   0.28203   0.28726   0.28797
 Alpha virt. eigenvalues --    0.28867   0.29264   0.29738   0.30013   0.30132
 Alpha virt. eigenvalues --    0.30350   0.30739   0.31298   0.31320   0.31881
 Alpha virt. eigenvalues --    0.32643   0.34220   0.34338   0.35036   0.35977
 Alpha virt. eigenvalues --    0.36024   0.36407   0.36474   0.37089   0.37141
 Alpha virt. eigenvalues --    0.37297   0.37351   0.37582   0.37864   0.38096
 Alpha virt. eigenvalues --    0.38275   0.38406   0.38438   0.38726   0.39175
 Alpha virt. eigenvalues --    0.39393   0.39508   0.39512   0.39884   0.40133
 Alpha virt. eigenvalues --    0.40527   0.40684   0.40756   0.40900   0.41470
 Alpha virt. eigenvalues --    0.41865   0.42184   0.42213   0.42267   0.42364
 Alpha virt. eigenvalues --    0.42405   0.42586   0.42794   0.43148   0.43368
 Alpha virt. eigenvalues --    0.43616   0.43901   0.44264   0.44716   0.44971
 Alpha virt. eigenvalues --    0.45273   0.45481   0.45620   0.45865   0.45926
 Alpha virt. eigenvalues --    0.45983   0.46030   0.46081   0.46345   0.46475
 Alpha virt. eigenvalues --    0.46716   0.46918   0.47090   0.47198   0.47439
 Alpha virt. eigenvalues --    0.47516   0.47829   0.48481   0.48561   0.48842
 Alpha virt. eigenvalues --    0.49029   0.49218   0.49394   0.49650   0.50005
 Alpha virt. eigenvalues --    0.50297   0.50610   0.50800   0.51019   0.51697
 Alpha virt. eigenvalues --    0.51934   0.52249   0.52265   0.52497   0.53322
 Alpha virt. eigenvalues --    0.54196   0.54359   0.54448   0.54768   0.54854
 Alpha virt. eigenvalues --    0.55995   0.56318   0.57177   0.57330   0.57363
 Alpha virt. eigenvalues --    0.58464   0.58615   0.59197   0.59635   0.59954
 Alpha virt. eigenvalues --    0.60297   0.60538   0.61263   0.61406   0.61490
 Alpha virt. eigenvalues --    0.61644   0.61894   0.62165   0.62184   0.62500
 Alpha virt. eigenvalues --    0.62518   0.62975   0.63055   0.63474   0.63495
 Alpha virt. eigenvalues --    0.63951   0.64230   0.64401   0.64831   0.65322
 Alpha virt. eigenvalues --    0.65647   0.65733   0.65782   0.66346   0.66467
 Alpha virt. eigenvalues --    0.67281   0.67606   0.68964   0.69587   0.70252
 Alpha virt. eigenvalues --    0.70542   0.70676   0.71613   0.71745   0.72086
 Alpha virt. eigenvalues --    0.72576   0.72634   0.73032   0.73378   0.73753
 Alpha virt. eigenvalues --    0.74424   0.74637   0.74766   0.75306   0.76285
 Alpha virt. eigenvalues --    0.76454   0.76967   0.77021   0.77434   0.78160
 Alpha virt. eigenvalues --    0.78275   0.78900   0.79249   0.79423   0.80167
 Alpha virt. eigenvalues --    0.80589   0.80628   0.80939   0.81190   0.82010
 Alpha virt. eigenvalues --    0.82384   0.82629   0.82906   0.83016   0.83541
 Alpha virt. eigenvalues --    0.83730   0.84103   0.84529   0.84696   0.85519
 Alpha virt. eigenvalues --    0.85726   0.86378   0.87640   0.88110   0.88315
 Alpha virt. eigenvalues --    0.89775   0.89780   0.90421   0.90577   0.90940
 Alpha virt. eigenvalues --    0.91465   0.91849   0.91962   0.93233   0.93707
 Alpha virt. eigenvalues --    0.93758   0.94435   0.95410   0.95470   0.95685
 Alpha virt. eigenvalues --    0.95955   0.96136   0.96528   0.97454   0.97539
 Alpha virt. eigenvalues --    0.97771   0.98313   0.98402   0.99206   1.00043
 Alpha virt. eigenvalues --    1.00355   1.00943   1.01294   1.01784   1.02725
 Alpha virt. eigenvalues --    1.02882   1.02976   1.03453   1.03879   1.03891
 Alpha virt. eigenvalues --    1.04443   1.04483   1.05058   1.05229   1.05243
 Alpha virt. eigenvalues --    1.05915   1.05969   1.06083   1.06212   1.06677
 Alpha virt. eigenvalues --    1.07018   1.07371   1.07771   1.07934   1.08096
 Alpha virt. eigenvalues --    1.08153   1.09105   1.09193   1.09753   1.10133
 Alpha virt. eigenvalues --    1.10618   1.10709   1.10985   1.11667   1.12726
 Alpha virt. eigenvalues --    1.12955   1.13164   1.13720   1.13880   1.14043
 Alpha virt. eigenvalues --    1.14814   1.15176   1.15718   1.15963   1.16063
 Alpha virt. eigenvalues --    1.16978   1.18037   1.18158   1.19331   1.20100
 Alpha virt. eigenvalues --    1.21203   1.21615   1.22768   1.23286   1.23428
 Alpha virt. eigenvalues --    1.24098   1.25454   1.27841   1.28317   1.30208
 Alpha virt. eigenvalues --    1.30417   1.30838   1.32461   1.32574   1.33128
 Alpha virt. eigenvalues --    1.33744   1.34844   1.34937   1.36380   1.37537
 Alpha virt. eigenvalues --    1.38540   1.39132   1.39792   1.39949   1.40314
 Alpha virt. eigenvalues --    1.40518   1.40593   1.40849   1.41458   1.42465
 Alpha virt. eigenvalues --    1.42790   1.43700   1.43836   1.44122   1.45290
 Alpha virt. eigenvalues --    1.45330   1.45770   1.46267   1.46771   1.47073
 Alpha virt. eigenvalues --    1.47471   1.47853   1.48144   1.48858   1.49403
 Alpha virt. eigenvalues --    1.49467   1.49501   1.49973   1.50122   1.50365
 Alpha virt. eigenvalues --    1.50693   1.51278   1.51332   1.52611   1.53028
 Alpha virt. eigenvalues --    1.53103   1.54023   1.54259   1.54325   1.54601
 Alpha virt. eigenvalues --    1.54701   1.54839   1.54990   1.55018   1.55533
 Alpha virt. eigenvalues --    1.56617   1.57308   1.57549   1.57730   1.57799
 Alpha virt. eigenvalues --    1.59229   1.59829   1.59852   1.60453   1.60567
 Alpha virt. eigenvalues --    1.60887   1.61344   1.62433   1.63008   1.63685
 Alpha virt. eigenvalues --    1.64448   1.65570   1.65959   1.66451   1.67456
 Alpha virt. eigenvalues --    1.69265   1.69436   1.69755   1.70458   1.70482
 Alpha virt. eigenvalues --    1.70722   1.70976   1.71795   1.72045   1.72143
 Alpha virt. eigenvalues --    1.73083   1.73162   1.73375   1.73382   1.73479
 Alpha virt. eigenvalues --    1.73696   1.73745   1.74131   1.74764   1.75027
 Alpha virt. eigenvalues --    1.77063   1.78151   1.78566   1.79224   1.79555
 Alpha virt. eigenvalues --    1.79899   1.80043   1.80226   1.80459   1.81387
 Alpha virt. eigenvalues --    1.81547   1.81650   1.82178   1.82402   1.82634
 Alpha virt. eigenvalues --    1.82848   1.84462   1.84580   1.84666   1.85139
 Alpha virt. eigenvalues --    1.85414   1.86298   1.87105   1.87255   1.87522
 Alpha virt. eigenvalues --    1.87747   1.88073   1.88263   1.88409   1.88477
 Alpha virt. eigenvalues --    1.88613   1.88849   1.89015   1.90335   1.90933
 Alpha virt. eigenvalues --    1.91141   1.91239   1.91425   1.92250   1.92491
 Alpha virt. eigenvalues --    1.92543   1.92885   1.93070   1.93269   1.93324
 Alpha virt. eigenvalues --    1.93417   1.94088   1.94254   1.94365   1.95020
 Alpha virt. eigenvalues --    1.95277   1.95622   1.95734   1.96210   1.97439
 Alpha virt. eigenvalues --    1.98082   1.99680   2.00356   2.00366   2.00490
 Alpha virt. eigenvalues --    2.00732   2.01056   2.01989   2.02546   2.03751
 Alpha virt. eigenvalues --    2.04365   2.05448   2.07191   2.07852   2.08827
 Alpha virt. eigenvalues --    2.08925   2.09403   2.10129   2.10510   2.10584
 Alpha virt. eigenvalues --    2.10612   2.11946   2.12851   2.13847   2.14813
 Alpha virt. eigenvalues --    2.15343   2.16068   2.16377   2.16769   2.16769
 Alpha virt. eigenvalues --    2.17826   2.19508   2.20438   2.21000   2.21387
 Alpha virt. eigenvalues --    2.22137   2.22346   2.22497   2.23076   2.23437
 Alpha virt. eigenvalues --    2.24285   2.24627   2.25164   2.26425   2.26599
 Alpha virt. eigenvalues --    2.26808   2.27303   2.27581   2.27912   2.27913
 Alpha virt. eigenvalues --    2.27942   2.29116   2.29625   2.29809   2.31235
 Alpha virt. eigenvalues --    2.33272   2.34638   2.35372   2.36406   2.38909
 Alpha virt. eigenvalues --    2.39100   2.40020   2.40297   2.40491   2.41292
 Alpha virt. eigenvalues --    2.42701   2.42890   2.44253   2.44386   2.45380
 Alpha virt. eigenvalues --    2.45577   2.46214   2.46453   2.46688   2.48642
 Alpha virt. eigenvalues --    2.50687   2.52290   2.52614   2.52969   2.53678
 Alpha virt. eigenvalues --    2.53952   2.54778   2.54893   2.55652   2.56264
 Alpha virt. eigenvalues --    2.56500   2.57807   2.58431   2.59008   2.59366
 Alpha virt. eigenvalues --    2.59503   2.59647   2.60436   2.60593   2.60740
 Alpha virt. eigenvalues --    2.60879   2.61251   2.61556   2.61816   2.62541
 Alpha virt. eigenvalues --    2.62913   2.63054   2.63681   2.63820   2.64281
 Alpha virt. eigenvalues --    2.64316   2.64944   2.65629   2.65856   2.66570
 Alpha virt. eigenvalues --    2.66859   2.67040   2.67255   2.67436   2.68058
 Alpha virt. eigenvalues --    2.68321   2.68403   2.68877   2.68998   2.69338
 Alpha virt. eigenvalues --    2.69418   2.69523   2.70103   2.70181   2.70323
 Alpha virt. eigenvalues --    2.70542   2.70757   2.71319   2.71821   2.72962
 Alpha virt. eigenvalues --    2.73393   2.74300   2.74321   2.74893   2.75418
 Alpha virt. eigenvalues --    2.75850   2.76638   2.77211   2.78134   2.78172
 Alpha virt. eigenvalues --    2.78176   2.78623   2.78707   2.78875   2.78935
 Alpha virt. eigenvalues --    2.79614   2.79874   2.81002   2.81599   2.82423
 Alpha virt. eigenvalues --    2.82565   2.83142   2.85140   2.85675   2.86262
 Alpha virt. eigenvalues --    2.86294   2.86499   2.86789   2.88189   2.88966
 Alpha virt. eigenvalues --    2.89167   2.90501   2.90648   2.91070   2.91795
 Alpha virt. eigenvalues --    2.92640   2.92953   2.93359   2.94792   2.94861
 Alpha virt. eigenvalues --    2.95253   2.95612   2.95839   2.97249   2.97544
 Alpha virt. eigenvalues --    2.98803   3.00236   3.00585   3.03486   3.03872
 Alpha virt. eigenvalues --    3.04546   3.05602   3.06867   3.07547   3.07763
 Alpha virt. eigenvalues --    3.08545   3.09080   3.15739   3.15756   3.16193
 Alpha virt. eigenvalues --    3.16998   3.17172   3.17700   3.19677   3.19910
 Alpha virt. eigenvalues --    3.20778   3.21033   3.23195   3.24458   3.29023
 Alpha virt. eigenvalues --    3.29580   3.29998   3.30451   3.31502   3.32626
 Alpha virt. eigenvalues --    3.34993   3.35503   3.35860   3.36256   3.36542
 Alpha virt. eigenvalues --    3.36817   3.36820   3.37265   3.37770   3.38886
 Alpha virt. eigenvalues --    3.39663   3.40810   3.41095   3.42930   3.44970
 Alpha virt. eigenvalues --    3.45160   3.45763   3.46301   3.48136   3.48219
 Alpha virt. eigenvalues --    3.49276   3.49529   3.50428   3.51194   3.52952
 Alpha virt. eigenvalues --    3.54140   3.57159   3.58329   3.58528   3.59486
 Alpha virt. eigenvalues --    3.61532   3.62450   3.62494   3.63089   3.63531
 Alpha virt. eigenvalues --    3.63697   3.65441   3.65934   3.66086   3.66994
 Alpha virt. eigenvalues --    3.67422   3.67655   3.68986   3.69064   4.00081
 Alpha virt. eigenvalues --    4.00136   4.01437   4.01497   4.01628   4.01831
 Alpha virt. eigenvalues --    4.02656   4.02996   4.15765   4.16328   4.17104
 Alpha virt. eigenvalues --    4.17531   4.18034   4.19626   4.21047   4.22083
 Alpha virt. eigenvalues --    4.22188   4.22707   4.23459   4.24138   4.25244
 Alpha virt. eigenvalues --    4.27396   4.38063   4.39905   4.61895   4.63611
 Alpha virt. eigenvalues --    4.78696   4.79289   4.80022   4.80164   4.80605
 Alpha virt. eigenvalues --    4.81583   4.82076   4.82512   4.83804   4.84280
 Alpha virt. eigenvalues --   23.38930  23.40606  23.54515  23.55818  23.69217
 Alpha virt. eigenvalues --   23.70193  23.77138  23.78362  23.80425  23.81168
 Alpha virt. eigenvalues --   23.81512  23.82522  23.85874  23.86969  23.88823
 Alpha virt. eigenvalues --   23.89057  23.89931  23.89983  23.91936  23.93180
 Alpha virt. eigenvalues --   23.97079  23.97928  23.98364  23.99095  24.08593
 Alpha virt. eigenvalues --   24.09444  24.09794  24.10052  24.10646  24.11245
 Alpha virt. eigenvalues --   24.11793  24.13122  24.13306  24.13883  24.14680
 Alpha virt. eigenvalues --   24.15313  24.15343  24.15391  24.16411  24.16445
 Alpha virt. eigenvalues --   24.19989  24.20034  24.21248  24.21296
          Condensed to atoms (all electrons):
 Mulliken charges:
               1
     1  C   -0.035948
     2  C   -0.061142
     3  C   -0.082377
     4  C   -0.050629
     5  C   -0.086198
     6  C   -0.089723
     7  C   -0.057530
     8  C   -0.025866
     9  C   -0.005130
    10  C   -0.059778
    11  H    0.085740
    12  H    0.077103
    13  H    0.077486
    14  H    0.084406
    15  H    0.096730
    16  H    0.097373
    17  C   -0.060884
    18  C   -0.025866
    19  C   -0.009204
    20  C   -0.059778
    21  H    0.075860
    22  H    0.076148
    23  C   -0.057530
    24  C   -0.035948
    25  C   -0.005130
    26  C   -0.061142
    27  H    0.077103
    28  H    0.077486
    29  C   -0.082377
    30  C   -0.086198
    31  C   -0.050629
    32  C   -0.089723
    33  H    0.085740
    34  H    0.097373
    35  H    0.096730
    36  H    0.084406
    37  C   -0.034139
    38  C   -0.100507
    39  C   -0.061173
    40  C   -0.054011
    41  C   -0.087925
    42  C   -0.111237
    43  C   -0.027120
    44  C   -0.023625
    45  C   -0.015130
    46  C   -0.103227
    47  H    0.079490
    48  H    0.071447
    49  H    0.108625
    50  H    0.109266
    51  H    0.088668
    52  H    0.092050
    53  C   -0.031211
    54  C   -0.023625
    55  C   -0.019703
    56  C   -0.103227
    57  H    0.070051
    58  H    0.107001
    59  C   -0.027120
    60  C   -0.034139
    61  C   -0.015130
    62  C   -0.100507
    63  H    0.071447
    64  H    0.108625
    65  C   -0.061173
    66  C   -0.087925
    67  C   -0.054011
    68  C   -0.111237
    69  H    0.079490
    70  H    0.092050
    71  H    0.088668
    72  H    0.109266
 Sum of Mulliken charges =   0.00000
 Mulliken charges with hydrogens summed into heavy atoms:
               1
     1  C   -0.035948
     2  C   -0.061142
     3  C    0.003363
     4  C    0.033778
     5  C    0.011175
     6  C    0.007007
     7  C    0.019573
     8  C   -0.025866
     9  C    0.072356
    10  C   -0.059778
    17  C    0.014976
    18  C   -0.025866
    19  C    0.066944
    20  C   -0.059778
    23  C    0.019573
    24  C   -0.035948
    25  C    0.072356
    26  C   -0.061142
    29  C    0.003363
    30  C    0.011175
    31  C    0.033778
    32  C    0.007007
    37  C   -0.034139
    38  C   -0.100507
    39  C    0.018317
    40  C    0.055255
    41  C    0.004126
    42  C   -0.022569
    43  C    0.044327
    44  C   -0.023625
    45  C    0.093495
    46  C   -0.103227
    53  C    0.038840
    54  C   -0.023625
    55  C    0.087298
    56  C   -0.103227
    59  C    0.044327
    60  C   -0.034139
    61  C    0.093495
    62  C   -0.100507
    65  C    0.018317
    66  C    0.004126
    67  C    0.055255
    68  C   -0.022569
         Mulliken charges condensed to fragments:
      1      0.010956
      2     -0.010956
 Electronic spatial extent (au):  <R**2>=          27411.9592
 Charge=              0.0000 electrons
 Dipole moment (field-independent basis, Debye):
    X=             -0.7935    Y=             -1.0663    Z=              0.0000  Tot=              1.3291
 Quadrupole moment (field-independent basis, Debye-Ang):
   XX=           -246.1592   YY=           -248.5251   ZZ=           -219.0779
   XY=              0.4372   XZ=              0.0000   YZ=              0.0000
 Traceless Quadrupole moment (field-independent basis, Debye-Ang):
   XX=             -8.2385   YY=            -10.6044   ZZ=             18.8428
   XY=              0.4372   XZ=              0.0000   YZ=              0.0000
 Octapole moment (field-independent basis, Debye-Ang**2):
  XXX=            -80.5076  YYY=            190.6979  ZZZ=              0.0000  XYY=             18.0772
  XXY=            -75.5787  XXZ=              0.0000  XZZ=            -14.2237  YZZ=            -25.6140
  YYZ=              0.0000  XYZ=              0.0000
 Hexadecapole moment (field-independent basis, Debye-Ang**3):
 XXXX=          -2658.1865 YYYY=         -12449.8703 ZZZZ=         -20991.0894 XXXY=          -1966.3525
 XXXZ=              0.0000 YYYX=          -1979.5809 YYYZ=              0.0000 ZZZX=              0.0000
 ZZZY=              0.0000 XXYY=          -2597.1688 XXZZ=          -4372.3343 YYZZ=          -5836.3652
 XXYZ=              0.0000 YYXZ=              0.0000 ZZXY=           -579.2663
 N-N= 4.528647659785D+03 E-N=-1.298769619440D+04  KE= 1.686680527627D+03
 Symmetry A'   KE= 9.134161031618D+02
 Symmetry A"   KE= 7.732644244656D+02
 No NMR shielding tensors so no spin-rotation constants.
 Leave Link  601 at Wed Sep 27 16:39:36 2023, MaxMem=  3221225472 cpu:              49.8 elap:               1.3
 (Enter /home/center/opt/aarch64/apps/gaussian16/c01/g16/l122.exe)
 CPIOFr:  IOpCl= 0 IRwI=-1 IRwCP=  731 ICalc= -1 LCPTot=     1419224 Len1MO=     3708034 IndFrg=     1419224
 CPIOFr:  IOpCl= 0 IRwI=-1 IRwCP=  731 ICalc=  0 LCPTot=     1419224 Len1MO=     3708034 IndFrg=     5127258
 Counterpoise: doing calculation for fragment   1 using the basis set of the full-system, NewBq=T
 Leave Link  122 at Wed Sep 27 16:39:38 2023, MaxMem=  3221225472 cpu:               9.1 elap:               0.4
 (Enter /home/center/opt/aarch64/apps/gaussian16/c01/g16/l301.exe)
 Basis read from rwf:  (5D, 7F)
 No pseudopotential information found on rwf file.
 There are   528 symmetry adapted cartesian basis functions of A'  symmetry.
 There are   476 symmetry adapted cartesian basis functions of A"  symmetry.
 There are   504 symmetry adapted basis functions of A'  symmetry.
 There are   456 symmetry adapted basis functions of A"  symmetry.
   960 basis functions,  1632 primitive gaussians,  1004 cartesian basis functions
    73 alpha electrons       73 beta electrons
       nuclear repulsion energy      1494.3575061313 Hartrees.
 IExCor=  402 DFT=T Ex+Corr=B3LYP ExCW=0 ScaHFX=  0.200000
 ScaDFX=  0.800000  0.720000  1.000000  0.810000 ScalE2=  1.000000  1.000000
 IRadAn=      5 IRanWt=     -1 IRanGd=            0 ICorTp=0 IEmpDi=131
 NAtoms=   72 NActive=   72 NUniq=   40 SFac= 3.24D+00 NAtFMM=   60 NAOKFM=T Big=F
 Integral buffers will be    131072 words long.
 Raffenetti 2 integral format.
 Two-electron integral symmetry is turned on.
 R6Disp:  Grimme-D3 Dispersion energy=       -0.0303938888 Hartrees.
 Nuclear repulsion after empirical dispersion term =     1494.3271122425 Hartrees.
 No density basis found on file    718.
 Leave Link  301 at Wed Sep 27 16:39:41 2023, MaxMem=  3221225472 cpu:               2.6 elap:               0.1
 (Enter /home/center/opt/aarch64/apps/gaussian16/c01/g16/l302.exe)
 NPDir=0 NMtPBC=     1 NCelOv=     1 NCel=       1 NClECP=     1 NCelD=      1
         NCelK=      1 NCelE2=     1 NClLst=     1 CellRange=     0.0.
 One-electron integrals computed using PRISM.
 One-electron integral symmetry used in STVInt
 NBasis=   960 RedAO= T EigKep=  3.88D-05  NBF=   504   456
 NBsUse=   960 1.00D-06 EigRej= -1.00D+00 NBFU=   504   456
 Precomputing XC quadrature grid using
 IXCGrd= 4 IRadAn=           5 IRanWt=          -1 IRanGd=           0 AccXCQ= 0.00D+00.
 Generated NRdTot=       0 NPtTot=           0 NUsed=           0 NTot=          32
 NSgBfM=   989   989   989   989   989 MxSgAt=    72 MxSgA2=    72.
 Leave Link  302 at Wed Sep 27 16:39:45 2023, MaxMem=  3221225472 cpu:              58.4 elap:               1.6
 (Enter /home/center/opt/aarch64/apps/gaussian16/c01/g16/l303.exe)
 DipDrv:  MaxL=1.
 Leave Link  303 at Wed Sep 27 16:39:47 2023, MaxMem=  3221225472 cpu:              12.1 elap:               0.3
 (Enter /home/center/opt/aarch64/apps/gaussian16/c01/g16/l401.exe)
 ExpMin= 1.03D-01 ExpMax= 4.56D+03 ExpMxC= 6.82D+02 IAcc=3 IRadAn=         5 AccDes= 0.00D+00
 Harris functional with IExCor=  402 and IRadAn=       5 diagonalized for initial guess.
 HarFok:  IExCor=  402 AccDes= 0.00D+00 IRadAn=         5 IDoV= 1 UseB2=F ITyADJ=14
 ICtDFT=  3500011 ScaDFX=  1.000000  1.000000  1.000000  1.000000
 FoFCou: FMM=F IPFlag=           0 FMFlag=      100000 FMFlg1=        2000
         NFxFlg=           0 DoJE=T BraDBF=F KetDBF=T FulRan=T
         wScrn=  0.000000 ICntrl=       500 IOpCl=  0 I1Cent=   200000004 NGrid=           0
         NMat0=    1 NMatS0=      1 NMatT0=    0 NMatD0=    1 NMtDS0=    0 NMtDT0=    0
 Petite list used in FoFCou.
 Harris En= -847.065397464735    
 JPrj=0 DoOrth=F DoCkMO=F.
 Initial guess orbital symmetries:
       Occupied  (A") (A') (A') (A") (A") (A') (A") (A') (A') (A")
                 (A") (A') (A') (A') (A") (A') (A") (A') (A") (A')
                 (A') (A") (A') (A") (A') (A") (A') (A') (A") (A')
                 (A") (A") (A') (A') (A") (A") (A') (A") (A') (A')
                 (A') (A") (A") (A") (A') (A') (A") (A') (A') (A")
                 (A') (A") (A") (A') (A') (A") (A') (A") (A') (A")
                 (A") (A') (A') (A") (A') (A") (A') (A") (A') (A')
                 (A") (A") (A')
       Virtual   (A') (A") (A") (A') (A') (A") (A') (A") (A') (A")
                 (A') (A') (A") (A') (A") (A') (A") (A') (A') (A")
                 (A") (A') (A') (A") (A") (A') (A') (A') (A') (A")
                 (A') (A") (A') (A") (A") (A') (A') (A") (A") (A')
                 (A') (A") (A") (A') (A") (A') (A') (A") (A") (A')
                 (A') (A") (A") (A') (A') (A") (A') (A') (A") (A')
                 (A") (A') (A") (A') (A") (A') (A') (A") (A") (A')
                 (A') (A") (A") (A") (A') (A') (A') (A') (A") (A')
                 (A') (A') (A") (A") (A') (A") (A') (A") (A') (A")
                 (A") (A") (A") (A') (A") (A') (A") (A') (A') (A')
                 (A') (A") (A') (A') (A") (A') (A') (A") (A') (A")
                 (A') (A") (A") (A') (A") (A') (A") (A") (A') (A")
                 (A") (A') (A') (A") (A') (A') (A') (A") (A') (A")
                 (A') (A") (A') (A') (A") (A') (A") (A') (A') (A")
                 (A') (A') (A") (A") (A') (A") (A') (A") (A") (A')
                 (A") (A') (A") (A") (A') (A") (A') (A') (A') (A")
                 (A') (A') (A") (A") (A') (A") (A') (A") (A') (A")
                 (A') (A") (A') (A") (A') (A") (A') (A") (A') (A')
                 (A") (A') (A") (A') (A") (A") (A') (A") (A') (A")
                 (A') (A') (A') (A") (A') (A') (A") (A") (A') (A')
                 (A") (A") (A") (A") (A') (A") (A') (A") (A') (A')
                 (A') (A') (A") (A") (A") (A') (A") (A') (A") (A")
                 (A') (A') (A') (A') (A") (A") (A') (A') (A') (A")
                 (A') (A") (A') (A") (A") (A') (A') (A") (A") (A")
                 (A') (A") (A') (A') (A") (A') (A') (A") (A") (A")
                 (A") (A') (A") (A') (A') (A') (A') (A') (A") (A")
                 (A") (A') (A") (A') (A') (A') (A") (A") (A') (A")
                 (A') (A') (A") (A") (A") (A') (A") (A') (A') (A")
                 (A") (A') (A') (A") (A') (A') (A") (A") (A') (A')
                 (A") (A') (A") (A') (A') (A") (A') (A') (A') (A")
                 (A") (A') (A") (A") (A') (A') (A") (A") (A") (A")
                 (A") (A') (A') (A') (A") (A') (A') (A') (A") (A')
                 (A") (A') (A") (A") (A') (A') (A") (A') (A") (A")
                 (A') (A') (A') (A') (A') (A") (A") (A') (A') (A")
                 (A') (A") (A") (A") (A') (A") (A") (A') (A') (A')
                 (A') (A") (A") (A') (A") (A') (A") (A') (A') (A')
                 (A') (A") (A') (A") (A") (A") (A") (A') (A') (A")
                 (A") (A') (A') (A") (A') (A") (A") (A') (A") (A')
                 (A") (A') (A') (A") (A") (A') (A') (A") (A') (A')
                 (A") (A") (A') (A") (A') (A') (A") (A") (A') (A")
                 (A') (A') (A") (A") (A') (A") (A") (A') (A') (A")
                 (A') (A") (A') (A') (A') (A") (A") (A') (A") (A")
                 (A') (A') (A") (A') (A") (A") (A') (A") (A') (A")
                 (A") (A') (A') (A') (A') (A") (A') (A") (A") (A')
                 (A") (A') (A') (A") (A') (A') (A") (A") (A") (A")
                 (A') (A') (A') (A') (A') (A") (A') (A") (A") (A")
                 (A') (A") (A') (A") (A') (A") (A") (A') (A') (A')
                 (A") (A') (A") (A") (A') (A") (A") (A') (A') (A")
                 (A') (A") (A") (A') (A") (A') (A') (A") (A") (A')
                 (A") (A') (A') (A") (A') (A") (A') (A') (A") (A")
                 (A') (A") (A') (A") (A') (A') (A") (A") (A') (A")
                 (A') (A') (A") (A') (A") (A") (A") (A') (A') (A")
                 (A') (A") (A') (A") (A') (A") (A') (A') (A") (A')
                 (A') (A") (A") (A') (A') (A") (A') (A') (A") (A')
                 (A") (A") (A') (A') (A') (A") (A') (A") (A") (A')
                 (A") (A") (A') (A") (A') (A') (A") (A') (A') (A")
                 (A") (A') (A') (A") (A") (A") (A') (A') (A") (A')
                 (A') (A") (A') (A') (A") (A') (A') (A") (A") (A")
                 (A') (A") (A') (A") (A') (A") (A') (A") (A") (A')
                 (A') (A") (A') (A') (A') (A') (A") (A") (A') (A")
                 (A") (A') (A") (A") (A') (A') (A") (A') (A') (A")
                 (A") (A') (A') (A") (A') (A") (A') (A") (A') (A")
                 (A') (A') (A") (A") (A') (A") (A") (A') (A') (A")
                 (A") (A') (A") (A") (A") (A') (A') (A') (A') (A")
                 (A') (A") (A') (A') (A") (A') (A") (A") (A') (A")
                 (A') (A") (A') (A") (A') (A") (A') (A") (A") (A')
                 (A") (A') (A") (A') (A") (A') (A") (A') (A") (A')
                 (A') (A") (A") (A') (A') (A") (A') (A") (A') (A')
                 (A") (A') (A") (A') (A") (A') (A") (A') (A') (A")
                 (A') (A") (A') (A') (A") (A") (A') (A") (A') (A')
                 (A") (A") (A') (A") (A') (A") (A') (A') (A") (A')
                 (A") (A') (A") (A') (A") (A') (A') (A") (A') (A')
                 (A") (A") (A') (A") (A") (A') (A') (A') (A') (A")
                 (A") (A") (A') (A") (A') (A") (A') (A") (A") (A')
                 (A") (A') (A") (A') (A") (A') (A') (A") (A") (A')
                 (A') (A") (A') (A') (A") (A') (A") (A') (A") (A')
                 (A") (A') (A') (A") (A") (A') (A') (A') (A") (A")
                 (A") (A') (A') (A") (A') (A') (A") (A') (A") (A')
                 (A") (A') (A') (A") (A") (A") (A') (A") (A') (A')
                 (A") (A") (A') (A") (A') (A") (A') (A') (A') (A")
                 (A") (A') (A") (A') (A") (A') (A") (A') (A') (A")
                 (A") (A') (A') (A") (A') (A") (A") (A') (A") (A')
[...]
                 (A') (A") (A') (A') (A') (A") (A") (A") (A") (A')
                 (A') (A') (A") (A") (A') (A") (A') (A") (A') (A')
                 (A") (A") (A')
       Virtual   (A') (A") (A") (A') (A') (A") (A') (A') (A') (A")
                 (A") (A') (A") (A') (A") (A') (A") (A") (A') (A")
                 (A') (A') (A") (A') (A") (A') (A') (A') (A') (A")
                 (A") (A") (A") (A') (A') (A") (A') (A") (A') (A")
                 (A') (A') (A') (A") (A') (A") (A") (A') (A') (A")
                 (A") (A') (A') (A") (A') (A") (A") (A") (A') (A")
                 (A') (A') (A') (A') (A') (A") (A') (A') (A") (A")
                 (A") (A') (A') (A') (A") (A') (A") (A") (A") (A')
                 (A') (A") (A') (A") (A") (A') (A") (A') (A') (A')
                 (A') (A') (A") (A") (A") (A") (A') (A") (A') (A")
                 (A') (A') (A') (A") (A") (A') (A') (A") (A') (A")
                 (A') (A") (A") (A") (A') (A') (A") (A') (A') (A")
                 (A') (A") (A") (A') (A') (A") (A') (A") (A') (A")
                 (A") (A') (A') (A') (A') (A") (A") (A") (A') (A")
                 (A') (A") (A') (A") (A') (A') (A") (A") (A') (A")
                 (A') (A") (A') (A") (A') (A') (A") (A') (A") (A")
                 (A') (A") (A') (A') (A") (A") (A') (A") (A') (A")
                 (A') (A') (A") (A') (A') (A") (A") (A') (A') (A')
                 (A") (A') (A") (A") (A") (A") (A') (A") (A') (A')
                 (A") (A') (A") (A') (A') (A') (A") (A') (A") (A')
                 (A") (A") (A') (A') (A") (A") (A') (A') (A") (A')
                 (A') (A') (A') (A") (A") (A") (A") (A') (A') (A")
                 (A') (A") (A") (A') (A") (A') (A") (A') (A") (A')
                 (A") (A') (A') (A") (A') (A") (A") (A') (A') (A")
                 (A") (A') (A') (A") (A") (A') (A") (A") (A") (A')
                 (A') (A") (A') (A') (A") (A') (A') (A") (A') (A")
                 (A") (A') (A") (A') (A') (A") (A") (A") (A') (A')
                 (A") (A') (A') (A") (A") (A") (A') (A") (A') (A')
                 (A") (A') (A") (A') (A") (A') (A') (A') (A") (A')
                 (A") (A") (A') (A') (A") (A") (A') (A") (A') (A")
                 (A') (A') (A") (A") (A') (A') (A") (A') (A') (A')
                 (A") (A") (A') (A") (A') (A") (A') (A") (A') (A')
                 (A') (A") (A") (A") (A') (A") (A') (A') (A') (A")
                 (A") (A') (A") (A') (A') (A") (A') (A") (A") (A')
                 (A') (A") (A') (A") (A") (A') (A') (A") (A') (A")
                 (A') (A") (A') (A") (A') (A") (A") (A') (A') (A")
                 (A') (A") (A') (A') (A") (A") (A') (A") (A') (A')
                 (A") (A') (A") (A') (A') (A") (A') (A") (A') (A")
                 (A") (A') (A") (A') (A") (A') (A") (A') (A') (A")
                 (A") (A') (A") (A') (A') (A") (A") (A') (A') (A")
                 (A') (A") (A') (A") (A') (A') (A")
 The electronic state is 1-A'.
 Alpha  occ. eigenvalues --  -10.18931 -10.18930 -10.18896 -10.18895 -10.18848
 Alpha  occ. eigenvalues --  -10.18848 -10.18813 -10.18813 -10.17956 -10.17955
 Alpha  occ. eigenvalues --  -10.17920 -10.17920 -10.17919 -10.17919 -10.17875
 Alpha  occ. eigenvalues --  -10.17875 -10.17863 -10.17863 -10.17808 -10.17808
 Alpha  occ. eigenvalues --  -10.17781 -10.17781  -0.89340  -0.87865  -0.85549
 Alpha  occ. eigenvalues --   -0.82415  -0.79820  -0.78521  -0.78314  -0.75991
 Alpha  occ. eigenvalues --   -0.74255  -0.72901  -0.69196  -0.67344  -0.62728
 Alpha  occ. eigenvalues --   -0.62370  -0.61108  -0.59964  -0.59301  -0.57689
 Alpha  occ. eigenvalues --   -0.52709  -0.52573  -0.52293  -0.49654  -0.48513
 Alpha  occ. eigenvalues --   -0.47160  -0.46110  -0.45590  -0.45476  -0.43928
 Alpha  occ. eigenvalues --   -0.43182  -0.42578  -0.41808  -0.41572  -0.41386
 Alpha  occ. eigenvalues --   -0.40692  -0.40405  -0.39579  -0.38193  -0.36732
 Alpha  occ. eigenvalues --   -0.36341  -0.35550  -0.34094  -0.33809  -0.33058
 Alpha  occ. eigenvalues --   -0.32930  -0.31612  -0.29665  -0.28406  -0.26623
 Alpha  occ. eigenvalues --   -0.24364  -0.22582  -0.17855
 Alpha virt. eigenvalues --   -0.09755  -0.04464  -0.02747  -0.00147   0.02073
 Alpha virt. eigenvalues --    0.02370   0.03189   0.04746   0.04859   0.04871
 Alpha virt. eigenvalues --    0.06161   0.06575   0.07968   0.08162   0.08303
 Alpha virt. eigenvalues --    0.09607   0.10049   0.11524   0.11533   0.13796
 Alpha virt. eigenvalues --    0.14111   0.14670   0.18092   0.18194   0.18832
 Alpha virt. eigenvalues --    0.19391   0.22815   0.23002   0.24379   0.24942
 Alpha virt. eigenvalues --    0.25581   0.27528   0.27575   0.28012   0.28228
 Alpha virt. eigenvalues --    0.28947   0.29389   0.30158   0.30759   0.31175
 Alpha virt. eigenvalues --    0.32897   0.34528   0.36420   0.36484   0.37134
 Alpha virt. eigenvalues --    0.37503   0.37629   0.37651   0.38116   0.38643
 Alpha virt. eigenvalues --    0.39094   0.39439   0.39739   0.40236   0.40435
 Alpha virt. eigenvalues --    0.41918   0.41926   0.41940   0.42289   0.42318
 Alpha virt. eigenvalues --    0.42643   0.43748   0.44233   0.44835   0.45295
 Alpha virt. eigenvalues --    0.45683   0.45924   0.45953   0.46379   0.47165
 Alpha virt. eigenvalues --    0.47805   0.47809   0.47978   0.48073   0.48231
 Alpha virt. eigenvalues --    0.48568   0.49414   0.49572   0.51377   0.51846
 Alpha virt. eigenvalues --    0.52370   0.53118   0.53671   0.55998   0.57923
 Alpha virt. eigenvalues --    0.57955   0.59048   0.59201   0.60433   0.60585
 Alpha virt. eigenvalues --    0.60693   0.61101   0.61690   0.62105   0.62173
 Alpha virt. eigenvalues --    0.63432   0.63481   0.64458   0.64535   0.65533
 Alpha virt. eigenvalues --    0.66693   0.66910   0.67680   0.67724   0.70658
 Alpha virt. eigenvalues --    0.71305   0.71405   0.71494   0.72803   0.73989
 Alpha virt. eigenvalues --    0.75405   0.75894   0.76289   0.77801   0.77809
 Alpha virt. eigenvalues --    0.78943   0.79160   0.79723   0.81162   0.81509
 Alpha virt. eigenvalues --    0.82881   0.83001   0.84383   0.84585   0.84713
 Alpha virt. eigenvalues --    0.88087   0.89711   0.89765   0.91536   0.92083
 Alpha virt. eigenvalues --    0.92578   0.93749   0.95806   0.96107   0.96442
 Alpha virt. eigenvalues --    0.96590   0.96905   0.98547   1.00356   1.01118
 Alpha virt. eigenvalues --    1.02686   1.03027   1.03354   1.04405   1.05244
 Alpha virt. eigenvalues --    1.05439   1.05525   1.05950   1.07395   1.07547
 Alpha virt. eigenvalues --    1.07686   1.08438   1.10005   1.10036   1.12070
 Alpha virt. eigenvalues --    1.13223   1.13544   1.13650   1.14526   1.15341
 Alpha virt. eigenvalues --    1.17432   1.18332   1.19657   1.20432   1.23014
 Alpha virt. eigenvalues --    1.23618   1.27884   1.28234   1.30579   1.32076
 Alpha virt. eigenvalues --    1.32743   1.34942   1.37641   1.39236   1.39896
 Alpha virt. eigenvalues --    1.39942   1.40725   1.42751   1.43476   1.43554
 Alpha virt. eigenvalues --    1.45057   1.46086   1.47119   1.47538   1.48841
 Alpha virt. eigenvalues --    1.49280   1.49417   1.50258   1.50674   1.52268
 Alpha virt. eigenvalues --    1.52650   1.53402   1.54331   1.54372   1.54781
 Alpha virt. eigenvalues --    1.54807   1.57107   1.57715   1.58569   1.59882
 Alpha virt. eigenvalues --    1.60106   1.62692   1.63242   1.64856   1.66641
 Alpha virt. eigenvalues --    1.69292   1.69605   1.69709   1.70649   1.71804
 Alpha virt. eigenvalues --    1.72459   1.72619   1.73075   1.73096   1.73680
 Alpha virt. eigenvalues --    1.77494   1.78519   1.79157   1.79419   1.80511
 Alpha virt. eigenvalues --    1.81616   1.81887   1.82058   1.83581   1.84039
 Alpha virt. eigenvalues --    1.85487   1.87392   1.87456   1.87577   1.87728
 Alpha virt. eigenvalues --    1.88131   1.88613   1.90743   1.91387   1.92190
 Alpha virt. eigenvalues --    1.92193   1.92572   1.92670   1.93517   1.93938
 Alpha virt. eigenvalues --    1.94544   1.95483   1.97262   1.99429   2.00088
 Alpha virt. eigenvalues --    2.00602   2.01362   2.03019   2.05757   2.08293
 Alpha virt. eigenvalues --    2.09111   2.09256   2.09792   2.12192   2.14098
 Alpha virt. eigenvalues --    2.15528   2.15584   2.17200   2.19751   2.20833
 Alpha virt. eigenvalues --    2.21576   2.22525   2.23381   2.24503   2.26441
 Alpha virt. eigenvalues --    2.26972   2.27242   2.27719   2.28046   2.29391
 Alpha virt. eigenvalues --    2.33301   2.35725   2.39155   2.39384   2.40817
 Alpha virt. eigenvalues --    2.42649   2.43076   2.45776   2.45994   2.46870
 Alpha virt. eigenvalues --    2.51623   2.51954   2.53354   2.53485   2.55138
 Alpha virt. eigenvalues --    2.56159   2.58701   2.58838   2.59764   2.59776
 Alpha virt. eigenvalues --    2.60682   2.61147   2.61719   2.62222   2.63349
 Alpha virt. eigenvalues --    2.63999   2.64478   2.66054   2.66794   2.67121
 Alpha virt. eigenvalues --    2.67374   2.68356   2.68872   2.68876   2.69372
 Alpha virt. eigenvalues --    2.69557   2.69907   2.70083   2.70281   2.73482
 Alpha virt. eigenvalues --    2.74771   2.74836   2.76066   2.77101   2.77577
 Alpha virt. eigenvalues --    2.78232   2.78455   2.78850   2.80822   2.82359
 Alpha virt. eigenvalues --    2.85535   2.85993   2.86737   2.87294   2.90966
 Alpha virt. eigenvalues --    2.91783   2.92195   2.93676   2.95232   2.95887
 Alpha virt. eigenvalues --    2.99270   2.99858   3.03165   3.05604   3.06852
 Alpha virt. eigenvalues --    3.07371   3.15988   3.16029   3.16647   3.19843
 Alpha virt. eigenvalues --    3.20017   3.23601   3.29134   3.29680   3.31610
 Alpha virt. eigenvalues --    3.35095   3.35458   3.35677   3.35858   3.38023
 Alpha virt. eigenvalues --    3.39887   3.41413   3.44960   3.45362   3.47993
 Alpha virt. eigenvalues --    3.48278   3.50401   3.53073   3.57439   3.58649
 Alpha virt. eigenvalues --    3.61466   3.62620   3.63208   3.63698   3.65910
 Alpha virt. eigenvalues --    3.67534   3.67678   4.00384   4.00442   4.01859
 Alpha virt. eigenvalues --    4.02182   4.16133   4.16678   4.17360   4.21240
 Alpha virt. eigenvalues --    4.22396   4.22517   4.25488   4.38492   4.62290
 Alpha virt. eigenvalues --    4.79179   4.79740   4.80562   4.82562   4.83014
 Alpha virt. eigenvalues --   23.39176  23.54541  23.69085  23.77378  23.80419
 Alpha virt. eigenvalues --   23.81537  23.86099  23.89067  23.89154  23.92210
 Alpha virt. eigenvalues --   23.97563  23.98365  24.09049  24.09932  24.10529
 Alpha virt. eigenvalues --   24.12220  24.13779  24.14375  24.15775  24.15810
 Alpha virt. eigenvalues --   24.20452  24.20497
          Condensed to atoms (all electrons):
 Mulliken charges:
               1
     1  C    0.000000
     2  C    0.000000
     3  C    0.000000
     4  C    0.000000
     5  C    0.000000
     6  C    0.000000
     7  C    0.000000
     8  C    0.000000
     9  C    0.000000
    10  C    0.000000
    11  H    0.000000
    12  H    0.000000
    13  H    0.000000
    14  H    0.000000
    15  H    0.000000
    16  H    0.000000
    17  C    0.000000
    18  C    0.000000
    19  C    0.000000
    20  C    0.000000
    21  H    0.000000
    22  H    0.000000
    23  C    0.000000
    24  C    0.000000
    25  C    0.000000
    26  C    0.000000
    27  H    0.000000
    28  H    0.000000
    29  C    0.000000
    30  C    0.000000
    31  C    0.000000
    32  C    0.000000
    33  H    0.000000
    34  H    0.000000
    35  H    0.000000
    36  H    0.000000
    37  C   -0.059168
    38  C   -0.059168
    39  C   -0.055977
    40  C   -0.055977
    41  C   -0.092198
    42  C   -0.092198
    43  C   -0.016525
    44  C   -0.054498
    45  C   -0.016525
    46  C   -0.054498
    47  H    0.082122
    48  H    0.074853
    49  H    0.074853
    50  H    0.082122
    51  H    0.094847
    52  H    0.094847
    53  C   -0.020341
    54  C   -0.054498
    55  C   -0.020341
    56  C   -0.054498
    57  H    0.073428
    58  H    0.073428
    59  C   -0.016525
    60  C   -0.059168
    61  C   -0.016525
    62  C   -0.059168
    63  H    0.074853
    64  H    0.074853
    65  C   -0.055977
    66  C   -0.092198
    67  C   -0.055977
    68  C   -0.092198
    69  H    0.082122
    70  H    0.094847
    71  H    0.094847
    72  H    0.082122
 Sum of Mulliken charges =   0.00000
 Mulliken charges with hydrogens summed into heavy atoms:
               1
     1  C    0.000000
     2  C    0.000000
     3  C    0.000000
     4  C    0.000000
     5  C    0.000000
     6  C    0.000000
     7  C    0.000000
     8  C    0.000000
     9  C    0.000000
    10  C    0.000000
    17  C    0.000000
    18  C    0.000000
    19  C    0.000000
    20  C    0.000000
    23  C    0.000000
    24  C    0.000000
    25  C    0.000000
    26  C    0.000000
    29  C    0.000000
    30  C    0.000000
    31  C    0.000000
    32  C    0.000000
    37  C   -0.059168
    38  C   -0.059168
    39  C    0.026144
    40  C    0.026144
    41  C    0.002649
    42  C    0.002649
    43  C    0.058328
    44  C   -0.054498
    45  C    0.058328
    46  C   -0.054498
    53  C    0.053087
    54  C   -0.054498
    55  C    0.053087
    56  C   -0.054498
    59  C    0.058328
    60  C   -0.059168
    61  C    0.058328
    62  C   -0.059168
    65  C    0.026144
    66  C    0.002649
    67  C    0.026144
    68  C    0.002649
         Mulliken charges condensed to fragments:
      1      0.000000
      2      0.000000
 Electronic spatial extent (au):  <R**2>=          12556.7820
 Charge=              0.0000 electrons
 Dipole moment (field-independent basis, Debye):
    X=              0.0000    Y=              0.0000    Z=              0.0000  Tot=              0.0000
 Quadrupole moment (field-independent basis, Debye-Ang):
   XX=           -136.3921   YY=           -110.7480   ZZ=           -109.0115
   XY=              0.0000   XZ=              0.0000   YZ=              0.0000
 Traceless Quadrupole moment (field-independent basis, Debye-Ang):
   XX=            -17.6749   YY=              7.9692   ZZ=              9.7057
   XY=              0.0000   XZ=              0.0000   YZ=              0.0000
 Octapole moment (field-independent basis, Debye-Ang**2):
  XXX=            723.3281  YYY=            587.3301  ZZZ=              0.0000  XYY=            195.7767
  XXY=            241.1094  XXZ=              0.0000  XZZ=            192.7069  YZZ=            192.7069
  YYZ=              0.0000  XYZ=              0.0000
 Hexadecapole moment (field-independent basis, Debye-Ang**3):
 XXXX=          -2711.7550 YYYY=          -3193.2425 ZZZZ=         -10461.4324 XXXY=          -1278.6755
 XXXZ=              0.0000 YYYX=          -1038.2628 YYYZ=              0.0000 ZZZX=              0.0000
 ZZZY=              0.0000 XXYY=          -1028.7281 XXZZ=          -2548.5928 YYZZ=          -2309.8752
 XXYZ=              0.0000 YYXZ=              0.0000 ZZXY=           -340.6608
 N-N= 1.494327112193D+03 E-N=-4.953709175941D+03  KE= 8.433374905104D+02
 Symmetry A'   KE= 4.567052305456D+02
 Symmetry A"   KE= 3.866322599648D+02
 No NMR shielding tensors so no spin-rotation constants.
 Leave Link  601 at Wed Sep 27 16:56:52 2023, MaxMem=  3221225472 cpu:              18.7 elap:               0.5
 (Enter /home/center/opt/aarch64/apps/gaussian16/c01/g16/l122.exe)
 CPIOFr:  IOpCl= 0 IRwI=-1 IRwCP=  731 ICalc=  4 LCPTot=     1419224 Len1MO=     3708034 IndFrg=    19959394
 Restoring MOs from calculation   1 to rwf.
 CPIOFr:  IOpCl= 0 IRwI=-2 IRwCP=  731 ICalc=  0 LCPTot=     1419224 Len1MO=     3708034 IndFrg=     5127258
 Counterpoise corrected energy =   -1694.055946605941
                   BSSE energy =       0.002904930040
              sum of fragments =   -1694.039683044264
           complexation energy =     -12.03 kcal/mole (raw)
           complexation energy =     -10.21 kcal/mole (corrected)
 Leave Link  122 at Wed Sep 27 16:56:55 2023, MaxMem=  3221225472 cpu:               8.3 elap:               0.3
 (Enter /home/center/opt/aarch64/apps/gaussian16/c01/g16/l9999.exe)

 Test job not archived.
 1\1\GINC-FX0440\SP\RB3LYP\6-311G(d,p)\C44H28\Z40145W\27-Sep-2023\0\\#P
  TEST b3lyp/6-311G** EmpiricalDispersion=GD3 counterpoise=2\\pentacene
 _A1=0_A2=0_A3=45_p2\\0,1\C,0,-0.5039478476,0.5239478476,-3.6612755801\
 C,0,0.5239480325,-0.5039480325,-3.6612755629\C,0,-0.9861248463,1.00612
 48463,-4.9235927708\C,0,1.0061250889,-0.9861250889,-4.9235926697\C,0,-
 0.4963213507,0.5163213507,-6.096356521\C,0,0.5163216812,-0.4963216812,
 -6.0963564796\C,0,-0.9844684311,1.0044684311,-2.4533174875\C,0,-0.5044
 88426,0.524488426,-1.2140288145\C,0,1.0044685359,-0.9844685359,-2.4533
 173917\C,0,0.5244885437,-0.5044885437,-1.2140288362\H,0,-1.7533559667,
 1.7733559667,-4.9232600459\H,0,-1.7521866813,1.7721866813,-2.453928581
 5\H,0,1.7721859268,-1.7521859268,-2.4539284818\H,0,1.7733558421,-1.753
 3558421,-4.9232597785\H,0,0.8905568758,-0.8705568758,-7.0425276922\H,0
 ,-0.8705565046,0.8905565046,-7.042527775\C,0,-0.9848184961,1.004818496
 1,0.0099998782\C,0,-0.5044883957,0.5244883957,1.2340295553\C,0,1.00481
 85643,-0.9848185643,0.0099998696\C,0,0.5244885146,-0.5044885146,1.2340
 295261\H,0,-1.7524699697,1.7724699697,0.0099999205\H,0,1.772468921,-1.
 752468921,0.0099999641\C,0,-0.9844683048,1.0044683048,2.4733171385\C,0
 ,-0.5039477114,0.5239477114,3.681276331\C,0,1.0044684211,-0.9844684211
 ,2.4733170835\C,0,0.5239479079,-0.5039479079,3.6812763217\H,0,-1.75218
 65527,1.7721865527,2.4739285326\H,0,1.7721858092,-1.7521858092,2.47392
 83796\C,0,-0.9861245177,1.0061245177,4.9435920588\C,0,-0.4963209372,0.
 5163209372,6.116356633\C,0,1.0061247659,-0.9861247659,4.9435919377\C,0
 ,0.5163212637,-0.4963212637,6.1163566075\H,0,-1.7533556504,1.773355650
 4,4.9432601504\H,0,-0.8705567426,0.8905567426,7.0625274368\H,0,0.89055
 70967,-0.8705570967,7.0625272142\H,0,1.7733555414,-1.7533555414,4.9432
 599297\C,0,4.4960521524,0.5239478476,-3.6612755801\C,0,5.5239480325,-0
 .5039480325,-3.6612755629\C,0,4.0138751537,1.0061248463,-4.9235927708\
 C,0,6.0061250889,-0.9861250889,-4.9235926697\C,0,4.5036786493,0.516321
 3507,-6.096356521\C,0,5.5163216812,-0.4963216812,-6.0963564796\C,0,4.0
 155315689,1.0044684311,-2.4533174875\C,0,4.495511574,0.524488426,-1.21
 40288145\C,0,6.0044685359,-0.9844685359,-2.4533173917\C,0,5.5244885437
 ,-0.5044885437,-1.2140288362\H,0,3.2466440333,1.7733559667,-4.92326004
 59\H,0,3.2478133187,1.7721866813,-2.4539285815\H,0,6.7721859268,-1.752
 1859268,-2.4539284818\H,0,6.7733558421,-1.7533558421,-4.9232597785\H,0
 ,5.8905568758,-0.8705568758,-7.0425276922\H,0,4.1294434954,0.890556504
 6,-7.042527775\C,0,4.0151815039,1.0048184961,0.0099998782\C,0,4.495511
 6043,0.5244883957,1.2340295553\C,0,6.0048185643,-0.9848185643,0.009999
 8696\C,0,5.5244885146,-0.5044885146,1.2340295261\H,0,3.2475300303,1.77
 24699697,0.0099999205\H,0,6.772468921,-1.752468921,0.0099999641\C,0,4.
 0155316952,1.0044683048,2.4733171385\C,0,4.4960522886,0.5239477114,3.6
 81276331\C,0,6.0044684211,-0.9844684211,2.4733170835\C,0,5.5239479079,
 -0.5039479079,3.6812763217\H,0,3.2478134473,1.7721865527,2.4739285326\
 H,0,6.7721858092,-1.7521858092,2.4739283796\C,0,4.0138754823,1.0061245
 177,4.9435920588\C,0,4.5036790628,0.5163209372,6.116356633\C,0,6.00612
 47659,-0.9861247659,4.9435919377\C,0,5.5163212637,-0.4963212637,6.1163
 566075\H,0,3.2466443496,1.7733556504,4.9432601504\H,0,4.1294432574,0.8
 905567426,7.0625274368\H,0,5.8905570967,-0.8705570967,7.0625272142\H,0
 ,6.7733555414,-1.7533555414,4.9432599297\\Version=Fujitsu-Arm-G16RevC.
 01\State=1-A'\HF=-847.0198415\RMSD=3.181e-09\Dipole=-0.0000009,0.00000
 11,0.\Quadrupole=-8.9382346,-5.3835131,14.3217477,-17.4479777,0.,0.\PG
 =CS [SG(C4H4),X(C40H24)]\\@


 HE WHO LAUGHS LAST PROBABLY DIDN'T GET THE JOKE.
 Job cpu time:       0 days  3 hours 35 minutes 24.5 seconds.
 Elapsed time:       0 days  0 hours  5 minutes 36.6 seconds.
 File lengths (MBytes):  RWF=    718 Int=      0 D2E=      0 Chk=    208 Scr=      1
 Normal termination of Gaussian 16 at Wed Sep 27 16:57:01 2023.
