 Entering Gaussian System, Link 0=g16
 Initial command:
 /home/center/opt/aarch64/apps/gaussian16/c01/g16/l1.exe "/data/tmp/Gtmp/1007003/Gau-49.inp" -scrdir="/data/tmp/Gtmp/1007003/"
 Entering Link 1 = /home/center/opt/aarch64/apps/gaussian16/c01/g16/l1.exe PID=        50.
  
 Copyright (c) 1988-2019, Gaussian, Inc.  All Rights Reserved.
  
 This is part of the Gaussian(R) 16 program.  It is based on
 the Gaussian(R) 09 system (copyright 2009, Gaussian, Inc.),
 the Gaussian(R) 03 system (copyright 2003, Gaussian, Inc.),
 the Gaussian(R) 98 system (copyright 1998, Gaussian, Inc.),
 the Gaussian(R) 94 system (copyright 1995, Gaussian, Inc.),
 the Gaussian 92(TM) system (copyright 1992, Gaussian, Inc.),
 the Gaussian 90(TM) system (copyright 1990, Gaussian, Inc.),
 the Gaussian 88(TM) system (copyright 1988, Gaussian, Inc.),
 the Gaussian 86(TM) system (copyright 1986, Carnegie Mellon
 University), and the Gaussian 82(TM) system (copyright 1983,
 Carnegie Mellon University). Gaussian is a federally registered
 trademark of Gaussian, Inc.
  
 This software contains proprietary and confidential information,
 including trade secrets, belonging to Gaussian, Inc.
  
 This software is provided under written license and may be
 used, copied, transmitted, or stored only in accord with that
 written license.
  
 The following legend is applicable only to US Government
 contracts under FAR:
  
                    RESTRICTED RIGHTS LEGEND
  
 Use, reproduction and disclosure by the US Government is
 subject to restrictions as set forth in subparagraphs (a)
 and (c) of the Commercial Computer Software - Restricted
 Rights clause in FAR 52.227-19.
  
 Gaussian, Inc.
 340 Quinnipiac St., Bldg. 40, Wallingford CT 06492
  
  
 ---------------------------------------------------------------
 Warning -- This program may not be used in any manner that
 competes with the business of Gaussian, Inc. or will provide
 assistance to any competitor of Gaussian, Inc.  The licensee
 of this program is prohibited from giving any competitor of
 Gaussian, Inc. access to this program.  By using this program,
 the user acknowledges that Gaussian, Inc. is engaged in the
 business of creating and licensing software in the field of
 computational chemistry and represents and warrants to the
 licensee that it is not a competitor of Gaussian, Inc. and that
 it will not use this program in any manner prohibited above.
 ---------------------------------------------------------------
  

 Cite this work as:
 Gaussian 16, Revision C.01,
 M. J. Frisch, G. W. Trucks, H. B. Schlegel, G. E. Scuseria, 
 M. A. Robb, J. R. Cheeseman, G. Scalmani, V. Barone, 
 G. A. Petersson, H. Nakatsuji, X. Li, M. Caricato, A. V. Marenich, 
 J. Bloino, B. G. Janesko, R. Gomperts, B. Mennucci, H. P. Hratchian, 
 J. V. Ortiz, A. F. Izmaylov, J. L. Sonnenberg, D. Williams-Young, 
 F. Ding, F. Lipparini, F. Egidi, J. Goings, B. Peng, A. Petrone, 
 T. Henderson, D. Ranasinghe, V. G. Zakrzewski, J. Gao, N. Rega, 
 G. Zheng, W. Liang, M. Hada, M. Ehara, K. Toyota, R. Fukuda, 
 J. Hasegawa, M. Ishida, T. Nakajima, Y. Honda, O. Kitao, H. Nakai, 
 T. Vreven, K. Throssell, J. A. Montgomery, Jr., J. E. Peralta, 
 F. Ogliaro, M. J. Bearpark, J. J. Heyd, E. N. Brothers, K. N. Kudin, 
 V. N. Staroverov, T. A. Keith, R. Kobayashi, J. Normand, 
 K. Raghavachari, A. P. Rendell, J. C. Burant, S. S. Iyengar, 
 J. Tomasi, M. Cossi, J. M. Millam, M. Klene, C. Adamo, R. Cammi, 
 J. W. Ochterski, R. L. Martin, K. Morokuma, O. Farkas, 
 J. B. Foresman, and D. J. Fox, Gaussian, Inc., Wallingford CT, 2019.
 
 ************************************************
 Gaussian 16:  Fujitsu-Arm-G16RevC.01  3-Jul-2019
                   27-Sep-2023 
 ************************************************
 %mem=24GB
 %nproc=42
 Will use up to   42 processors via shared memory.
 -------------------------------------------------------------
 #P TEST b3lyp/6-311G** EmpiricalDispersion=GD3 counterpoise=2
 -------------------------------------------------------------
 1/38=1,62=2,172=1/1;
 2/12=2,17=6,18=5,40=1/2;
 1/38=1,53=2,62=2,63=1/22;
 3/5=4,6=6,7=101,11=2,25=1,30=1,74=-5,124=31/1,2,3;
 4//1;
 5/5=2,38=5/2;
 6/7=2,8=2,9=2,10=2,28=1/1;
 1/53=2,62=2,63=1/22;
 3/5=7,6=11,7=101,11=2,25=1,30=1,74=-5,82=7,124=31/1,2,3;
 4//1;
 5/5=2,38=5/2;
 6/7=2,8=2,9=2,10=2,28=1/1;
 1/53=2,62=2,63=1/22(-4);
 99/5=1,9=1/99;
 Leave Link    1 at Wed Sep 27 16:58:06 2023, MaxMem=  3221225472 cpu:               6.6 elap:               0.2
 (Enter /home/center/opt/aarch64/apps/gaussian16/c01/g16/l101.exe)
 ----------------------------
 pentacene_A1=0_A2=0_A3=45_t1
 ----------------------------
 Symbolic Z-matrix:
 Charge =  0 Multiplicity = 1 in supermolecule
 Charge =  0 Multiplicity = 1 in fragment      1.
 Charge =  0 Multiplicity = 1 in fragment      2.
 C(Fragment=1)        -0.50395   0.52395  -3.66128 
 C(Fragment=1)         0.52395  -0.50395  -3.66128 
 C(Fragment=1)        -0.98612   1.00612  -4.92359 
 C(Fragment=1)         1.00613  -0.98613  -4.92359 
 C(Fragment=1)        -0.49632   0.51632  -6.09636 
 C(Fragment=1)         0.51632  -0.49632  -6.09636 
 C(Fragment=1)        -0.98447   1.00447  -2.45332 
 C(Fragment=1)        -0.50449   0.52449  -1.21403 
 C(Fragment=1)         1.00447  -0.98447  -2.45332 
 C(Fragment=1)         0.52449  -0.50449  -1.21403 
 H(Fragment=1)        -1.75336   1.77336  -4.92326 
 H(Fragment=1)        -1.75219   1.77219  -2.45393 
 H(Fragment=1)         1.77219  -1.75219  -2.45393 
 H(Fragment=1)         1.77336  -1.75336  -4.92326 
 H(Fragment=1)         0.89056  -0.87056  -7.04253 
 H(Fragment=1)        -0.87056   0.89056  -7.04253 
 C(Fragment=1)        -0.98482   1.00482   0.01 
 C(Fragment=1)        -0.50449   0.52449   1.23403 
 C(Fragment=1)         1.00482  -0.98482   0.01 
 C(Fragment=1)         0.52449  -0.50449   1.23403 
 H(Fragment=1)        -1.75247   1.77247   0.01 
 H(Fragment=1)         1.77247  -1.75247   0.01 
 C(Fragment=1)        -0.98447   1.00447   2.47332 
 C(Fragment=1)        -0.50395   0.52395   3.68128 
 C(Fragment=1)         1.00447  -0.98447   2.47332 
 C(Fragment=1)         0.52395  -0.50395   3.68128 
 H(Fragment=1)        -1.75219   1.77219   2.47393 
 H(Fragment=1)         1.77219  -1.75219   2.47393 
 C(Fragment=1)        -0.98612   1.00612   4.94359 
 C(Fragment=1)        -0.49632   0.51632   6.11636 
 C(Fragment=1)         1.00612  -0.98612   4.94359 
 C(Fragment=1)         0.51632  -0.49632   6.11636 
 H(Fragment=1)        -1.75336   1.77336   4.94326 
 H(Fragment=1)        -0.87056   0.89056   7.06253 
 H(Fragment=1)         0.89056  -0.87056   7.06253 
 H(Fragment=1)         1.77336  -1.75336   4.94326 
 C(Fragment=2)         5.77395   2.52395  -3.66128 
 C(Fragment=2)         4.74605   1.49605  -3.66128 
 C(Fragment=2)         6.25612   3.00612  -4.92359 
 C(Fragment=2)         4.26387   1.01387  -4.92359 
 C(Fragment=2)         5.76632   2.51632  -6.09636 
 C(Fragment=2)         4.75368   1.50368  -6.09636 
 C(Fragment=2)         6.25447   3.00447  -2.45332 
 C(Fragment=2)         5.77449   2.52449  -1.21403 
 C(Fragment=2)         4.26553   1.01553  -2.45332 
 C(Fragment=2)         4.74551   1.49551  -1.21403 
 H(Fragment=2)         7.02336   3.77336  -4.92326 
 H(Fragment=2)         7.02219   3.77219  -2.45393 
 H(Fragment=2)         3.49781   0.24781  -2.45393 
 H(Fragment=2)         3.49664   0.24664  -4.92326 
 H(Fragment=2)         4.37944   1.12944  -7.04253 
 H(Fragment=2)         6.14056   2.89056  -7.04253 
 C(Fragment=2)         6.25482   3.00482   0.01 
 C(Fragment=2)         5.77449   2.52449   1.23403 
 C(Fragment=2)         4.26518   1.01518   0.01 
 C(Fragment=2)         4.74551   1.49551   1.23403 
 H(Fragment=2)         7.02247   3.77247   0.01 
 H(Fragment=2)         3.49753   0.24753   0.01 
 C(Fragment=2)         6.25447   3.00447   2.47332 
 C(Fragment=2)         5.77395   2.52395   3.68128 
 C(Fragment=2)         4.26553   1.01553   2.47332 
 C(Fragment=2)         4.74605   1.49605   3.68128 
 H(Fragment=2)         7.02219   3.77219   2.47393 
 H(Fragment=2)         3.49781   0.24781   2.47393 
 C(Fragment=2)         6.25612   3.00612   4.94359 
 C(Fragment=2)         5.76632   2.51632   6.11636 
 C(Fragment=2)         4.26388   1.01388   4.94359 
 C(Fragment=2)         4.75368   1.50368   6.11636 
 H(Fragment=2)         7.02336   3.77336   4.94326 
 H(Fragment=2)         6.14056   2.89056   7.06253 
 H(Fragment=2)         4.37944   1.12944   7.06253 
 H(Fragment=2)         3.49664   0.24664   4.94326 
 
 ITRead=  0  0  0  0  0  0  0  0  0  0  0  0  0  0  0  0  0  0  0  0
 ITRead=  0  0  0  0  0  0  0  0  0  0  0  0  0  0  0  0  0  0  0  0
 ITRead=  0  0  0  0  0  0  0  0  0  0  0  0  0  0  0  0  0  0  0  0
 ITRead=  0  0  0  0  0  0  0  0  0  0  0  0
 MicOpt= -1 -1 -1 -1 -1 -1 -1 -1 -1 -1 -1 -1 -1 -1 -1 -1 -1 -1 -1 -1
 MicOpt= -1 -1 -1 -1 -1 -1 -1 -1 -1 -1 -1 -1 -1 -1 -1 -1 -1 -1 -1 -1
 MicOpt= -1 -1 -1 -1 -1 -1 -1 -1 -1 -1 -1 -1 -1 -1 -1 -1 -1 -1 -1 -1
 MicOpt= -1 -1 -1 -1 -1 -1 -1 -1 -1 -1 -1 -1
 NAtoms=     72 NQM=       72 NQMF=       0 NMMI=      0 NMMIF=      0
                NMic=       0 NMicF=      0.
                    Isotopes and Nuclear Properties:
 (Nuclear quadrupole moments (NQMom) in fm**2, nuclear magnetic moments (NMagM)
  in nuclear magnetons)

  Atom         1           2           3           4           5           6           7           8           9          10
 IAtWgt=          12          12          12          12          12          12          12          12          12          12
 AtmWgt=  12.0000000  12.0000000  12.0000000  12.0000000  12.0000000  12.0000000  12.0000000  12.0000000  12.0000000  12.0000000
 NucSpn=           0           0           0           0           0           0           0           0           0           0
 AtZEff=   0.0000000   0.0000000   0.0000000   0.0000000   0.0000000   0.0000000   0.0000000   0.0000000   0.0000000   0.0000000
 NQMom=    0.0000000   0.0000000   0.0000000   0.0000000   0.0000000   0.0000000   0.0000000   0.0000000   0.0000000   0.0000000
 NMagM=    0.0000000   0.0000000   0.0000000   0.0000000   0.0000000   0.0000000   0.0000000   0.0000000   0.0000000   0.0000000
 AtZNuc=   6.0000000   6.0000000   6.0000000   6.0000000   6.0000000   6.0000000   6.0000000   6.0000000   6.0000000   6.0000000

  Atom        11          12          13          14          15          16          17          18          19          20
 IAtWgt=           1           1           1           1           1           1          12          12          12          12
 AtmWgt=   1.0078250   1.0078250   1.0078250   1.0078250   1.0078250   1.0078250  12.0000000  12.0000000  12.0000000  12.0000000
 NucSpn=           1           1           1           1           1           1           0           0           0           0
 AtZEff=   0.0000000   0.0000000   0.0000000   0.0000000   0.0000000   0.0000000   0.0000000   0.0000000   0.0000000   0.0000000
 NQMom=    0.0000000   0.0000000   0.0000000   0.0000000   0.0000000   0.0000000   0.0000000   0.0000000   0.0000000   0.0000000
 NMagM=    2.7928460   2.7928460   2.7928460   2.7928460   2.7928460   2.7928460   0.0000000   0.0000000   0.0000000   0.0000000
 AtZNuc=   1.0000000   1.0000000   1.0000000   1.0000000   1.0000000   1.0000000   6.0000000   6.0000000   6.0000000   6.0000000

  Atom        21          22          23          24          25          26          27          28          29          30
 IAtWgt=           1           1          12          12          12          12           1           1          12          12
 AtmWgt=   1.0078250   1.0078250  12.0000000  12.0000000  12.0000000  12.0000000   1.0078250   1.0078250  12.0000000  12.0000000
 NucSpn=           1           1           0           0           0           0           1           1           0           0
 AtZEff=   0.0000000   0.0000000   0.0000000   0.0000000   0.0000000   0.0000000   0.0000000   0.0000000   0.0000000   0.0000000
 NQMom=    0.0000000   0.0000000   0.0000000   0.0000000   0.0000000   0.0000000   0.0000000   0.0000000   0.0000000   0.0000000
 NMagM=    2.7928460   2.7928460   0.0000000   0.0000000   0.0000000   0.0000000   2.7928460   2.7928460   0.0000000   0.0000000
 AtZNuc=   1.0000000   1.0000000   6.0000000   6.0000000   6.0000000   6.0000000   1.0000000   1.0000000   6.0000000   6.0000000

  Atom        31          32          33          34          35          36          37          38          39          40
 IAtWgt=          12          12           1           1           1           1          12          12          12          12
 AtmWgt=  12.0000000  12.0000000   1.0078250   1.0078250   1.0078250   1.0078250  12.0000000  12.0000000  12.0000000  12.0000000
 NucSpn=           0           0           1           1           1           1           0           0           0           0
 AtZEff=   0.0000000   0.0000000   0.0000000   0.0000000   0.0000000   0.0000000   0.0000000   0.0000000   0.0000000   0.0000000
 NQMom=    0.0000000   0.0000000   0.0000000   0.0000000   0.0000000   0.0000000   0.0000000   0.0000000   0.0000000   0.0000000
 NMagM=    0.0000000   0.0000000   2.7928460   2.7928460   2.7928460   2.7928460   0.0000000   0.0000000   0.0000000   0.0000000
 AtZNuc=   6.0000000   6.0000000   1.0000000   1.0000000   1.0000000   1.0000000   6.0000000   6.0000000   6.0000000   6.0000000

  Atom        41          42          43          44          45          46          47          48          49          50
 IAtWgt=          12          12          12          12          12          12           1           1           1           1
 AtmWgt=  12.0000000  12.0000000  12.0000000  12.0000000  12.0000000  12.0000000   1.0078250   1.0078250   1.0078250   1.0078250
 NucSpn=           0           0           0           0           0           0           1           1           1           1
 AtZEff=   0.0000000   0.0000000   0.0000000   0.0000000   0.0000000   0.0000000   0.0000000   0.0000000   0.0000000   0.0000000
 NQMom=    0.0000000   0.0000000   0.0000000   0.0000000   0.0000000   0.0000000   0.0000000   0.0000000   0.0000000   0.0000000
 NMagM=    0.0000000   0.0000000   0.0000000   0.0000000   0.0000000   0.0000000   2.7928460   2.7928460   2.7928460   2.7928460
 AtZNuc=   6.0000000   6.0000000   6.0000000   6.0000000   6.0000000   6.0000000   1.0000000   1.0000000   1.0000000   1.0000000

  Atom        51          52          53          54          55          56          57          58          59          60
 IAtWgt=           1           1          12          12          12          12           1           1          12          12
 AtmWgt=   1.0078250   1.0078250  12.0000000  12.0000000  12.0000000  12.0000000   1.0078250   1.0078250  12.0000000  12.0000000
 NucSpn=           1           1           0           0           0           0           1           1           0           0
 AtZEff=   0.0000000   0.0000000   0.0000000   0.0000000   0.0000000   0.0000000   0.0000000   0.0000000   0.0000000   0.0000000
 NQMom=    0.0000000   0.0000000   0.0000000   0.0000000   0.0000000   0.0000000   0.0000000   0.0000000   0.0000000   0.0000000
 NMagM=    2.7928460   2.7928460   0.0000000   0.0000000   0.0000000   0.0000000   2.7928460   2.7928460   0.0000000   0.0000000
 AtZNuc=   1.0000000   1.0000000   6.0000000   6.0000000   6.0000000   6.0000000   1.0000000   1.0000000   6.0000000   6.0000000

  Atom        61          62          63          64          65          66          67          68          69          70
 IAtWgt=          12          12           1           1          12          12          12          12           1           1
 AtmWgt=  12.0000000  12.0000000   1.0078250   1.0078250  12.0000000  12.0000000  12.0000000  12.0000000   1.0078250   1.0078250
 NucSpn=           0           0           1           1           0           0           0           0           1           1
 AtZEff=   0.0000000   0.0000000   0.0000000   0.0000000   0.0000000   0.0000000   0.0000000   0.0000000   0.0000000   0.0000000
 NQMom=    0.0000000   0.0000000   0.0000000   0.0000000   0.0000000   0.0000000   0.0000000   0.0000000   0.0000000   0.0000000
 NMagM=    0.0000000   0.0000000   2.7928460   2.7928460   0.0000000   0.0000000   0.0000000   0.0000000   2.7928460   2.7928460
 AtZNuc=   6.0000000   6.0000000   1.0000000   1.0000000   6.0000000   6.0000000   6.0000000   6.0000000   1.0000000   1.0000000

  Atom        71          72
 IAtWgt=           1           1
 AtmWgt=   1.0078250   1.0078250
 NucSpn=           1           1
 AtZEff=   0.0000000   0.0000000
 NQMom=    0.0000000   0.0000000
 NMagM=    2.7928460   2.7928460
 AtZNuc=   1.0000000   1.0000000
 Leave Link  101 at Wed Sep 27 16:58:08 2023, MaxMem=  3221225472 cpu:               2.5 elap:               0.1
 (Enter /home/center/opt/aarch64/apps/gaussian16/c01/g16/l202.exe)
 Stoichiometry    C44H28
 Framework group  CS[SG(C4H4),X(C40H24)]
 Deg. of freedom   109
 Full point group                 CS      NOp   2
 Largest Abelian subgroup         CS      NOp   2
 Largest concise Abelian subgroup CS      NOp   2
                         Standard orientation:                         
 ---------------------------------------------------------------------
 Center     Atomic      Atomic             Coordinates (Angstroms)
 Number     Number       Type             X           Y           Z
 ---------------------------------------------------------------------
      1          6           0        1.875881   -2.563262    3.671276
      2          6           0        0.422216   -2.563262    3.671276
      3          6           0        2.557782   -2.563262    4.933593
      4          6           0       -0.259685   -2.563262    4.933593
      5          6           0        1.865095   -2.563262    6.106357
      6          6           0        0.433002   -2.563262    6.106357
      7          6           0        2.555439   -2.563262    2.463318
      8          6           0        1.876645   -2.563262    1.224029
      9          6           0       -0.257342   -2.563262    2.463317
     10          6           0        0.421452   -2.563262    1.224029
     11          1           0        3.642810   -2.563262    4.933260
     12          1           0        3.641157   -2.563262    2.463929
     13          1           0       -1.343059   -2.563262    2.463929
     14          1           0       -1.344713   -2.563262    4.933260
     15          1           0       -0.096247   -2.563262    7.052528
     16          1           0        2.394344   -2.563262    7.052528
     17          6           0        2.555934   -2.563262    0.000000
     18          6           0        1.876645   -2.563262   -1.224029
     19          6           0       -0.257837   -2.563262    0.000000
     20          6           0        0.421452   -2.563262   -1.224029
     21          1           0        3.641558   -2.563262    0.000000
     22          1           0       -1.343459   -2.563262    0.000000
     23          6           0        2.555439   -2.563262   -2.463318
     24          6           0        1.875881   -2.563262   -3.671276
     25          6           0       -0.257342   -2.563262   -2.463317
     26          6           0        0.422216   -2.563262   -3.671276
     27          1           0        3.641157   -2.563262   -2.463929
     28          1           0       -1.343059   -2.563262   -2.463929
     29          6           0        2.557782   -2.563262   -4.933593
     30          6           0        1.865095   -2.563262   -6.106357
     31          6           0       -0.259685   -2.563262   -4.933593
     32          6           0        0.433002   -2.563262   -6.106357
     33          1           0        3.642810   -2.563262   -4.933260
     34          1           0        2.394344   -2.563262   -7.052528
     35          1           0       -0.096247   -2.563262   -7.052528
     36          1           0       -1.344713   -2.563262   -4.933260
     37          6           0       -1.149048    3.290094    3.671276
     38          6           0       -1.149048    1.836430    3.671276
     39          6           0       -1.149048    3.971995    4.933593
     40          6           0       -1.149048    1.154529    4.933593
     41          6           0       -1.149048    3.279309    6.106357
     42          6           0       -1.149048    1.847215    6.106357
     43          6           0       -1.149048    3.969653    2.463318
     44          6           0       -1.149048    3.290859    1.224029
     45          6           0       -1.149048    1.156871    2.463317
     46          6           0       -1.149048    1.835665    1.224029
     47          1           0       -1.149048    5.057024    4.933260
     48          1           0       -1.149048    5.055370    2.463929
     49          1           0       -1.149048    0.071155    2.463929
     50          1           0       -1.149048    0.069500    4.933260
     51          1           0       -1.149048    1.317967    7.052528
     52          1           0       -1.149048    3.808557    7.052528
     53          6           0       -1.149048    3.970148    0.000000
     54          6           0       -1.149048    3.290859   -1.224029
     55          6           0       -1.149048    1.156376    0.000000
     56          6           0       -1.149048    1.835665   -1.224029
     57          1           0       -1.149048    5.055771    0.000000
     58          1           0       -1.149048    0.070755    0.000000
     59          6           0       -1.149048    3.969653   -2.463318
     60          6           0       -1.149048    3.290094   -3.671276
     61          6           0       -1.149048    1.156871   -2.463317
     62          6           0       -1.149048    1.836430   -3.671276
     63          1           0       -1.149048    5.055370   -2.463929
     64          1           0       -1.149048    0.071155   -2.463929
     65          6           0       -1.149048    3.971995   -4.933593
     66          6           0       -1.149048    3.279309   -6.106357
     67          6           0       -1.149048    1.154529   -4.933593
     68          6           0       -1.149048    1.847215   -6.106357
     69          1           0       -1.149048    5.057024   -4.933260
     70          1           0       -1.149048    3.808557   -7.052528
     71          1           0       -1.149048    1.317967   -7.052528
     72          1           0       -1.149048    0.069500   -4.933260
 ---------------------------------------------------------------------
 Rotational constants (GHZ):           0.0980777           0.0563744           0.0378459
 Leave Link  202 at Wed Sep 27 16:58:11 2023, MaxMem=  3221225472 cpu:               0.6 elap:               0.0
 (Enter /home/center/opt/aarch64/apps/gaussian16/c01/g16/l122.exe)
 Counterpoise: doing full-system calculation.
 Leave Link  122 at Wed Sep 27 16:58:13 2023, MaxMem=  3221225472 cpu:               0.2 elap:               0.0
 (Enter /home/center/opt/aarch64/apps/gaussian16/c01/g16/l301.exe)
 Standard basis: 6-311G(d,p) (5D, 7F)
 Ernie: Thresh=  0.10000D-02 Tol=  0.10000D-05 Strict=F.
 There are   528 symmetry adapted cartesian basis functions of A'  symmetry.
 There are   476 symmetry adapted cartesian basis functions of A"  symmetry.
 There are   504 symmetry adapted basis functions of A'  symmetry.
 There are   456 symmetry adapted basis functions of A"  symmetry.
   960 basis functions,  1632 primitive gaussians,  1004 cartesian basis functions
   146 alpha electrons      146 beta electrons
       nuclear repulsion energy      4567.5795785072 Hartrees.
 IExCor=  402 DFT=T Ex+Corr=B3LYP ExCW=0 ScaHFX=  0.200000
 ScaDFX=  0.800000  0.720000  1.000000  0.810000 ScalE2=  1.000000  1.000000
 IRadAn=      5 IRanWt=     -1 IRanGd=            0 ICorTp=0 IEmpDi=131
 NAtoms=   72 NActive=   72 NUniq=   40 SFac= 3.24D+00 NAtFMM=   60 NAOKFM=T Big=F
 Integral buffers will be    131072 words long.
 Raffenetti 2 integral format.
 Two-electron integral symmetry is turned on.
 R6Disp:  Grimme-D3 Dispersion energy=       -0.0769279538 Hartrees.
 Nuclear repulsion after empirical dispersion term =     4567.5026505534 Hartrees.
 Leave Link  301 at Wed Sep 27 16:58:15 2023, MaxMem=  3221225472 cpu:               2.0 elap:               0.1
 (Enter /home/center/opt/aarch64/apps/gaussian16/c01/g16/l302.exe)
 NPDir=0 NMtPBC=     1 NCelOv=     1 NCel=       1 NClECP=     1 NCelD=      1
         NCelK=      1 NCelE2=     1 NClLst=     1 CellRange=     0.0.
 One-electron integrals computed using PRISM.
 One-electron integral symmetry used in STVInt
 NBasis=   960 RedAO= T EigKep=  3.91D-05  NBF=   504   456
 NBsUse=   960 1.00D-06 EigRej= -1.00D+00 NBFU=   504   456
 Precomputing XC quadrature grid using
 IXCGrd= 4 IRadAn=           5 IRanWt=          -1 IRanGd=           0 AccXCQ= 0.00D+00.
 Generated NRdTot=       0 NPtTot=           0 NUsed=           0 NTot=          32
 NSgBfM=   989   989   989   989   989 MxSgAt=    72 MxSgA2=    72.
 Leave Link  302 at Wed Sep 27 16:58:19 2023, MaxMem=  3221225472 cpu:              64.6 elap:               2.0
 (Enter /home/center/opt/aarch64/apps/gaussian16/c01/g16/l303.exe)
 DipDrv:  MaxL=1.
 Leave Link  303 at Wed Sep 27 16:58:22 2023, MaxMem=  3221225472 cpu:              13.8 elap:               0.4
 (Enter /home/center/opt/aarch64/apps/gaussian16/c01/g16/l401.exe)
 ExpMin= 1.03D-01 ExpMax= 4.56D+03 ExpMxC= 6.82D+02 IAcc=3 IRadAn=         5 AccDes= 0.00D+00
 Harris functional with IExCor=  402 and IRadAn=       5 diagonalized for initial guess.
 HarFok:  IExCor=  402 AccDes= 0.00D+00 IRadAn=         5 IDoV= 1 UseB2=F ITyADJ=14
 ICtDFT=  3500011 ScaDFX=  1.000000  1.000000  1.000000  1.000000
 FoFCou: FMM=F IPFlag=           0 FMFlag=      100000 FMFlg1=        2000
         NFxFlg=           0 DoJE=T BraDBF=F KetDBF=T FulRan=T
         wScrn=  0.000000 ICntrl=       500 IOpCl=  0 I1Cent=   200000004 NGrid=           0
         NMat0=    1 NMatS0=      1 NMatT0=    0 NMatD0=    1 NMtDS0=    0 NMtDT0=    0
 Petite list used in FoFCou.
 Harris En= -1694.13567173870    
 JPrj=0 DoOrth=F DoCkMO=F.
 Initial guess orbital symmetries:
       Occupied  (A") (A') (A") (A') (A') (A") (A') (A") (A") (A')
                 (A") (A') (A") (A') (A") (A') (A") (A') (A") (A')
                 (A') (A") (A") (A') (A') (A') (A') (A') (A") (A')
                 (A") (A') (A") (A') (A") (A') (A") (A') (A") (A')
                 (A') (A") (A') (A") (A') (A') (A") (A") (A') (A')
                 (A") (A") (A') (A') (A') (A') (A") (A") (A') (A')
                 (A") (A") (A") (A") (A') (A') (A') (A') (A") (A")
                 (A") (A") (A') (A') (A") (A") (A') (A') (A') (A')
                 (A') (A') (A") (A") (A") (A") (A') (A") (A") (A')
                 (A') (A') (A") (A") (A') (A') (A') (A") (A') (A")
                 (A') (A') (A") (A") (A") (A") (A') (A') (A') (A")
                 (A') (A") (A') (A') (A") (A") (A') (A') (A") (A")
                 (A") (A") (A') (A') (A') (A') (A") (A") (A') (A')
                 (A") (A") (A') (A') (A") (A") (A') (A') (A') (A')
                 (A") (A") (A") (A") (A') (A')
       Virtual   (A') (A') (A") (A") (A") (A") (A') (A') (A') (A')
                 (A") (A") (A') (A') (A") (A") (A') (A") (A') (A')
                 (A') (A') (A") (A") (A') (A') (A") (A") (A') (A')
                 (A") (A') (A") (A") (A") (A') (A") (A') (A') (A')
                 (A") (A") (A') (A') (A") (A') (A") (A') (A') (A')
                 (A") (A') (A') (A") (A') (A') (A') (A") (A") (A")
                 (A') (A") (A") (A") (A') (A') (A") (A") (A") (A')
                 (A') (A") (A') (A') (A") (A') (A") (A") (A') (A")
                 (A') (A') (A") (A') (A') (A') (A") (A') (A') (A")
                 (A") (A') (A") (A") (A') (A") (A') (A') (A") (A")
                 (A") (A') (A') (A") (A') (A") (A') (A') (A') (A')
                 (A") (A') (A") (A') (A') (A") (A') (A") (A') (A")
                 (A") (A') (A') (A") (A") (A") (A') (A") (A') (A")
                 (A") (A') (A') (A") (A") (A') (A") (A') (A') (A")
                 (A') (A") (A') (A') (A") (A') (A') (A') (A') (A")
                 (A') (A") (A") (A') (A') (A") (A') (A') (A") (A")
                 (A") (A') (A") (A') (A") (A') (A") (A") (A') (A')
                 (A') (A") (A') (A") (A') (A') (A") (A") (A') (A")
                 (A') (A") (A') (A') (A") (A") (A') (A') (A") (A')
                 (A") (A') (A') (A") (A') (A") (A') (A') (A") (A')
                 (A") (A") (A') (A") (A') (A") (A') (A') (A') (A")
                 (A') (A") (A") (A") (A') (A") (A') (A") (A") (A')
                 (A') (A") (A') (A") (A") (A") (A') (A') (A') (A')
                 (A") (A') (A") (A') (A') (A") (A') (A") (A") (A")
                 (A') (A') (A") (A") (A') (A") (A') (A') (A') (A')
                 (A") (A") (A') (A") (A") (A') (A') (A") (A') (A")
                 (A') (A') (A") (A") (A') (A") (A") (A') (A') (A")
                 (A') (A") (A') (A") (A") (A") (A') (A") (A') (A')
                 (A') (A") (A") (A') (A') (A') (A") (A') (A") (A')
                 (A") (A') (A") (A') (A") (A") (A") (A') (A") (A")
                 (A") (A') (A") (A') (A') (A') (A') (A") (A') (A')
                 (A") (A") (A') (A') (A") (A") (A") (A') (A') (A")
                 (A') (A') (A") (A') (A') (A') (A") (A") (A') (A")
                 (A") (A") (A') (A") (A') (A") (A') (A') (A") (A')
                 (A") (A') (A') (A") (A') (A") (A") (A') (A') (A')
                 (A") (A') (A") (A') (A") (A') (A") (A') (A') (A')
                 (A') (A") (A') (A") (A") (A') (A") (A") (A") (A")
                 (A") (A') (A") (A') (A") (A") (A') (A') (A') (A')
                 (A") (A') (A') (A') (A") (A') (A') (A") (A') (A')
                 (A") (A") (A") (A') (A') (A") (A") (A") (A') (A')
                 (A") (A') (A') (A") (A") (A') (A') (A") (A") (A')
                 (A") (A') (A') (A') (A") (A') (A') (A") (A") (A')
                 (A') (A') (A") (A') (A") (A') (A") (A') (A') (A")
                 (A") (A") (A") (A') (A") (A') (A") (A") (A') (A')
                 (A") (A") (A') (A") (A") (A') (A') (A") (A') (A")
                 (A') (A') (A') (A") (A') (A") (A') (A") (A') (A")
                 (A') (A") (A") (A') (A') (A") (A") (A') (A") (A')
                 (A") (A') (A") (A") (A') (A") (A') (A') (A") (A')
                 (A") (A') (A') (A') (A") (A') (A") (A") (A") (A')
                 (A") (A") (A') (A") (A") (A") (A") (A') (A") (A')
                 (A') (A") (A') (A") (A') (A') (A') (A') (A") (A')
                 (A") (A') (A') (A") (A') (A") (A") (A') (A") (A')
                 (A") (A') (A") (A') (A") (A") (A') (A') (A") (A')
                 (A') (A') (A") (A") (A") (A') (A") (A') (A") (A')
                 (A") (A") (A') (A') (A') (A") (A") (A') (A") (A")
                 (A') (A") (A') (A") (A') (A") (A') (A") (A') (A')
                 (A") (A') (A') (A") (A') (A") (A") (A') (A') (A")
                 (A') (A") (A") (A") (A') (A') (A") (A') (A") (A')
                 (A') (A') (A') (A") (A") (A") (A') (A') (A') (A')
                 (A') (A") (A') (A") (A') (A") (A') (A") (A') (A")
                 (A') (A") (A") (A') (A") (A') (A") (A") (A') (A')
                 (A") (A') (A') (A") (A') (A') (A") (A") (A") (A")
                 (A') (A') (A") (A') (A') (A") (A") (A') (A") (A')
                 (A') (A') (A') (A") (A") (A') (A') (A") (A') (A")
                 (A") (A") (A') (A") (A") (A') (A") (A') (A') (A')
                 (A") (A') (A') (A') (A") (A') (A") (A') (A') (A")
                 (A') (A") (A") (A") (A') (A') (A") (A') (A") (A')
                 (A') (A") (A") (A') (A") (A') (A") (A") (A') (A')
                 (A") (A") (A') (A') (A') (A") (A') (A") (A") (A")
                 (A') (A') (A') (A") (A') (A") (A') (A") (A") (A')
                 (A') (A") (A') (A") (A') (A') (A") (A") (A') (A")
                 (A') (A") (A") (A") (A') (A') (A') (A') (A") (A")
                 (A') (A') (A") (A") (A') (A') (A') (A") (A") (A')
                 (A') (A") (A') (A") (A") (A') (A") (A') (A') (A')
                 (A") (A") (A') (A") (A') (A") (A') (A') (A') (A')
                 (A") (A") (A') (A') (A") (A") (A') (A') (A") (A")
                 (A") (A') (A") (A') (A") (A") (A') (A") (A') (A")
                 (A') (A') (A") (A") (A') (A') (A') (A') (A") (A")
                 (A") (A") (A') (A') (A") (A") (A') (A') (A') (A')
                 (A") (A") (A") (A") (A') (A') (A') (A') (A") (A")
                 (A') (A') (A") (A") (A') (A') (A") (A') (A") (A')
                 (A') (A") (A') (A")
 The electronic state of the initial guess is 1-A'.
 Leave Link  401 at Wed Sep 27 16:58:27 2023, MaxMem=  3221225472 cpu:             103.4 elap:               2.6
 (Enter /home/center/opt/aarch64/apps/gaussian16/c01/g16/l502.exe)
 Integral symmetry usage will be decided dynamically.
 Closed shell SCF:
 Using DIIS extrapolation, IDIIS=  1040.
 NGot=  3221225472 LenX=  3219153746 LenY=  3218144726
 Requested convergence on RMS density matrix=1.00D-08 within 128 cycles.
 Requested convergence on MAX density matrix=1.00D-06.
 Requested convergence on             energy=1.00D-06.
 No special actions if energy rises.
 Fock matrices will be formed incrementally for  20 cycles.
 Integral accuracy reduced to 1.0D-05 until final iterations.

 Cycle   1  Pass 0  IDiag  1:
 FoFJK:  IHMeth= 1 ICntrl=       0 DoSepK=F KAlg= 0 I1Cent=           0 FoldK=F
 IRaf= 540000000 NMat=       1 IRICut=       1 DoRegI=T DoRafI=F ISym2E= 1 IDoP0=0 IntGTp=1.
 FoFCou: FMM=F IPFlag=           0 FMFlag=      100000 FMFlg1=        2000
         NFxFlg=           0 DoJE=F BraDBF=F KetDBF=F FulRan=T
         wScrn=  0.000000 ICntrl=         0 IOpCl=  0 I1Cent=           0 NGrid=           0
         NMat0=    1 NMatS0=      1 NMatT0=    0 NMatD0=    1 NMtDS0=    0 NMtDT0=    0
 Petite list used in FoFCou.
 E= -1693.16141753162    
 DIIS: error= 4.29D-02 at cycle   1 NSaved=   1.
 NSaved= 1 IEnMin= 1 EnMin= -1693.16141753162     IErMin= 1 ErrMin= 4.29D-02
 ErrMax= 4.29D-02  0.00D+00 EMaxC= 1.00D-01 BMatC= 9.04D-01 BMatP= 9.04D-01
 IDIUse=3 WtCom= 5.71D-01 WtEn= 4.29D-01
 Coeff-Com:  0.100D+01
 Coeff-En:   0.100D+01
 Coeff:      0.100D+01
 Gap=     0.072 Goal=   None    Shift=    0.000
 GapD=    0.072 DampG=0.500 DampE=0.500 DampFc=0.2500 IDamp=-1.
 Damping current iteration by 2.50D-01
 RMSDP=1.76D-03 MaxDP=8.41D-02              OVMax= 1.59D-01

 Cycle   2  Pass 0  IDiag  1:
 RMSU=  4.25D-04    CP:  9.82D-01
 E= -1693.47279207403     Delta-E=       -0.311374542414 Rises=F Damp=T
 DIIS: error= 2.52D-02 at cycle   2 NSaved=   2.
 NSaved= 2 IEnMin= 2 EnMin= -1693.47279207403     IErMin= 2 ErrMin= 2.52D-02
 ErrMax= 2.52D-02  0.00D+00 EMaxC= 1.00D-01 BMatC= 2.99D-01 BMatP= 9.04D-01
 IDIUse=3 WtCom= 7.48D-01 WtEn= 2.52D-01
 Coeff-Com: -0.120D+01 0.220D+01
 Coeff-En:   0.000D+00 0.100D+01
 Coeff:     -0.895D+00 0.190D+01
 Gap=     0.067 Goal=   None    Shift=    0.000
 RMSDP=6.92D-04 MaxDP=3.31D-02 DE=-3.11D-01 OVMax= 8.27D-02

 Cycle   3  Pass 0  IDiag  1:
 RMSU=  4.80D-04    CP:  9.57D-01  2.11D+00
 E= -1694.04158421988     Delta-E=       -0.568792145842 Rises=F Damp=F
 DIIS: error= 5.02D-03 at cycle   3 NSaved=   3.
 NSaved= 3 IEnMin= 3 EnMin= -1694.04158421988     IErMin= 3 ErrMin= 5.02D-03
 ErrMax= 5.02D-03  0.00D+00 EMaxC= 1.00D-01 BMatC= 1.20D-02 BMatP= 2.99D-01
 IDIUse=3 WtCom= 9.50D-01 WtEn= 5.02D-02
 Coeff-Com: -0.270D+00 0.545D+00 0.725D+00
 Coeff-En:   0.000D+00 0.000D+00 0.100D+01
 Coeff:     -0.256D+00 0.518D+00 0.739D+00
 Gap=     0.071 Goal=   None    Shift=    0.000
 RMSDP=2.38D-04 MaxDP=1.28D-02 DE=-5.69D-01 OVMax= 9.00D-02

 Cycle   4  Pass 0  IDiag  1:
 RMSU=  2.00D-04    CP:  9.58D-01  2.06D+00  7.37D-01
 E= -1694.03788793954     Delta-E=        0.003696280333 Rises=F Damp=F
 DIIS: error= 7.44D-03 at cycle   4 NSaved=   4.
 NSaved= 4 IEnMin= 3 EnMin= -1694.04158421988     IErMin= 3 ErrMin= 5.02D-03
 ErrMax= 7.44D-03  0.00D+00 EMaxC= 1.00D-01 BMatC= 1.35D-02 BMatP= 1.20D-02
 IDIUse=3 WtCom= 1.04D-01 WtEn= 8.96D-01
 Coeff-Com: -0.541D-01 0.130D+00 0.514D+00 0.410D+00
 Coeff-En:   0.000D+00 0.000D+00 0.554D+00 0.446D+00
 Coeff:     -0.562D-02 0.135D-01 0.550D+00 0.442D+00
 Gap=     0.068 Goal=   None    Shift=    0.000
 RMSDP=1.46D-04 MaxDP=9.33D-03 DE= 3.70D-03 OVMax= 7.95D-02

 Cycle   5  Pass 0  IDiag  1:
 RMSU=  8.24D-05    CP:  9.58D-01  2.06D+00  7.80D-01  4.08D-01
 E= -1694.05270322618     Delta-E=       -0.014815286637 Rises=F Damp=F
 DIIS: error= 2.22D-03 at cycle   5 NSaved=   5.
 NSaved= 5 IEnMin= 5 EnMin= -1694.05270322618     IErMin= 5 ErrMin= 2.22D-03
 ErrMax= 2.22D-03  0.00D+00 EMaxC= 1.00D-01 BMatC= 1.13D-03 BMatP= 1.20D-02
 IDIUse=3 WtCom= 9.78D-01 WtEn= 2.22D-02
 Coeff-Com: -0.170D-01 0.372D-01 0.253D+00 0.257D+00 0.469D+00
 Coeff-En:   0.000D+00 0.000D+00 0.000D+00 0.443D-01 0.956D+00
 Coeff:     -0.166D-01 0.364D-01 0.248D+00 0.252D+00 0.480D+00
 Gap=     0.068 Goal=   None    Shift=    0.000
 RMSDP=5.26D-05 MaxDP=3.64D-03 DE=-1.48D-02 OVMax= 3.42D-02

 Cycle   6  Pass 0  IDiag  1:
 RMSU=  2.57D-05    CP:  9.58D-01  2.07D+00  8.03D-01  5.15D-01  5.30D-01
 E= -1694.05373813087     Delta-E=       -0.001034904694 Rises=F Damp=F
 DIIS: error= 1.36D-03 at cycle   6 NSaved=   6.
 NSaved= 6 IEnMin= 6 EnMin= -1694.05373813087     IErMin= 6 ErrMin= 1.36D-03
 ErrMax= 1.36D-03  0.00D+00 EMaxC= 1.00D-01 BMatC= 2.67D-04 BMatP= 1.13D-03
 IDIUse=3 WtCom= 9.86D-01 WtEn= 1.36D-02
 Coeff-Com: -0.296D-02 0.507D-02 0.104D+00 0.121D+00 0.349D+00 0.425D+00
 Coeff-En:   0.000D+00 0.000D+00 0.000D+00 0.000D+00 0.211D+00 0.789D+00
 Coeff:     -0.292D-02 0.500D-02 0.102D+00 0.119D+00 0.347D+00 0.430D+00
 Gap=     0.068 Goal=   None    Shift=    0.000
 RMSDP=2.07D-05 MaxDP=1.74D-03 DE=-1.03D-03 OVMax= 1.52D-02

 Cycle   7  Pass 0  IDiag  1:
 RMSU=  9.75D-06    CP:  9.58D-01  2.07D+00  8.05D-01  4.95D-01  6.11D-01
                    CP:  3.56D-01
 E= -1694.05402450830     Delta-E=       -0.000286377424 Rises=F Damp=F
 DIIS: error= 3.95D-04 at cycle   7 NSaved=   7.
 NSaved= 7 IEnMin= 7 EnMin= -1694.05402450830     IErMin= 7 ErrMin= 3.95D-04
 ErrMax= 3.95D-04  0.00D+00 EMaxC= 1.00D-01 BMatC= 2.79D-05 BMatP= 2.67D-04
 IDIUse=3 WtCom= 9.96D-01 WtEn= 3.95D-03
 Coeff-Com: -0.273D-03 0.960D-05 0.561D-01 0.671D-01 0.214D+00 0.307D+00
 Coeff-Com:  0.356D+00
 Coeff-En:   0.000D+00 0.000D+00 0.000D+00 0.000D+00 0.000D+00 0.713D-01
 Coeff-En:   0.929D+00
 Coeff:     -0.272D-03 0.957D-05 0.558D-01 0.669D-01 0.213D+00 0.306D+00
 Coeff:      0.359D+00
 Gap=     0.068 Goal=   None    Shift=    0.000
 RMSDP=6.61D-06 MaxDP=3.61D-04 DE=-2.86D-04 OVMax= 3.14D-03

 Initial convergence to 1.0D-05 achieved.  Increase integral accuracy.
 Cycle   8  Pass 1  IDiag  1:
 E= -1694.05375853632     Delta-E=        0.000265971976 Rises=F Damp=F
 DIIS: error= 6.18D-04 at cycle   1 NSaved=   1.
 NSaved= 1 IEnMin= 1 EnMin= -1694.05375853632     IErMin= 1 ErrMin= 6.18D-04
 ErrMax= 6.18D-04  0.00D+00 EMaxC= 1.00D-01 BMatC= 4.15D-05 BMatP= 4.15D-05
 IDIUse=3 WtCom= 9.94D-01 WtEn= 6.18D-03
 Coeff-Com:  0.100D+01
 Coeff-En:   0.100D+01
 Coeff:      0.100D+01
 Gap=     0.069 Goal=   None    Shift=    0.000
 RMSDP=6.61D-06 MaxDP=3.61D-04 DE= 2.66D-04 OVMax= 2.79D-03

 Cycle   9  Pass 1  IDiag  1:
 RMSU=  3.17D-04    CP:  9.98D-01
 E= -1694.05379114649     Delta-E=       -0.000032610167 Rises=F Damp=F
 DIIS: error= 2.59D-04 at cycle   2 NSaved=   2.
 NSaved= 2 IEnMin= 2 EnMin= -1694.05379114649     IErMin= 2 ErrMin= 2.59D-04
 ErrMax= 2.59D-04  0.00D+00 EMaxC= 1.00D-01 BMatC= 7.02D-06 BMatP= 4.15D-05
 IDIUse=3 WtCom= 9.97D-01 WtEn= 2.59D-03
 Coeff-Com:  0.174D+00 0.826D+00
 Coeff-En:   0.000D+00 0.100D+01
 Coeff:      0.174D+00 0.826D+00
 Gap=     0.068 Goal=   None    Shift=    0.000
 RMSDP=9.98D-06 MaxDP=7.45D-04 DE=-3.26D-05 OVMax= 6.71D-03

 Cycle  10  Pass 1  IDiag  1:
 RMSU=  9.60D-06    CP:  9.98D-01  1.01D+00
 E= -1694.05375561134     Delta-E=        0.000035535149 Rises=F Damp=F
 DIIS: error= 6.01D-04 at cycle   3 NSaved=   3.
 NSaved= 3 IEnMin= 2 EnMin= -1694.05379114649     IErMin= 2 ErrMin= 2.59D-04
 ErrMax= 6.01D-04  0.00D+00 EMaxC= 1.00D-01 BMatC= 3.49D-05 BMatP= 7.02D-06
 IDIUse=3 WtCom= 2.90D-01 WtEn= 7.10D-01
 Coeff-Com: -0.980D-03 0.692D+00 0.309D+00
 Coeff-En:   0.000D+00 0.759D+00 0.241D+00
 Coeff:     -0.284D-03 0.739D+00 0.261D+00
 Gap=     0.068 Goal=   None    Shift=    0.000
 RMSDP=5.44D-06 MaxDP=4.04D-04 DE= 3.55D-05 OVMax= 3.82D-03

 Cycle  11  Pass 1  IDiag  1:
 RMSU=  9.34D-07    CP:  9.98D-01  1.01D+00  4.45D-01
 E= -1694.05379824541     Delta-E=       -0.000042634066 Rises=F Damp=F
 DIIS: error= 1.05D-04 at cycle   4 NSaved=   4.
 NSaved= 4 IEnMin= 4 EnMin= -1694.05379824541     IErMin= 4 ErrMin= 1.05D-04
 ErrMax= 1.05D-04  0.00D+00 EMaxC= 1.00D-01 BMatC= 1.39D-06 BMatP= 7.02D-06
 IDIUse=3 WtCom= 9.99D-01 WtEn= 1.05D-03
 Coeff-Com: -0.365D-02 0.448D+00 0.118D+00 0.437D+00
 Coeff-En:   0.000D+00 0.230D+00 0.000D+00 0.770D+00
 Coeff:     -0.365D-02 0.448D+00 0.118D+00 0.437D+00
 Gap=     0.068 Goal=   None    Shift=    0.000
 RMSDP=1.29D-06 MaxDP=1.07D-04 DE=-4.26D-05 OVMax= 8.87D-04

 Cycle  12  Pass 1  IDiag  1:
 RMSU=  3.74D-07    CP:  9.98D-01  1.01D+00  3.19D-01  7.51D-01
 E= -1694.05379990763     Delta-E=       -0.000001662228 Rises=F Damp=F
 DIIS: error= 5.46D-06 at cycle   5 NSaved=   5.
 NSaved= 5 IEnMin= 5 EnMin= -1694.05379990763     IErMin= 5 ErrMin= 5.46D-06
 ErrMax= 5.46D-06  0.00D+00 EMaxC= 1.00D-01 BMatC= 7.53D-09 BMatP= 1.39D-06
 IDIUse=1 WtCom= 1.00D+00 WtEn= 0.00D+00
 Coeff-Com: -0.234D-02 0.273D+00 0.689D-01 0.283D+00 0.378D+00
 Coeff:     -0.234D-02 0.273D+00 0.689D-01 0.283D+00 0.378D+00
 Gap=     0.068 Goal=   None    Shift=    0.000
 RMSDP=1.23D-07 MaxDP=1.04D-05 DE=-1.66D-06 OVMax= 8.05D-05

 Cycle  13  Pass 1  IDiag  1:
 RMSU=  1.07D-07    CP:  9.98D-01  1.01D+00  3.19D-01  7.69D-01  8.42D-01
 E= -1694.05379991594     Delta-E=       -0.000000008305 Rises=F Damp=F
 DIIS: error= 2.01D-06 at cycle   6 NSaved=   6.
 NSaved= 6 IEnMin= 6 EnMin= -1694.05379991594     IErMin= 6 ErrMin= 2.01D-06
 ErrMax= 2.01D-06  0.00D+00 EMaxC= 1.00D-01 BMatC= 8.51D-10 BMatP= 7.53D-09
 IDIUse=1 WtCom= 1.00D+00 WtEn= 0.00D+00
 Coeff-Com: -0.969D-03 0.109D+00 0.268D-01 0.118D+00 0.258D+00 0.490D+00
 Coeff:     -0.969D-03 0.109D+00 0.268D-01 0.118D+00 0.258D+00 0.490D+00
 Gap=     0.068 Goal=   None    Shift=    0.000
 RMSDP=4.05D-08 MaxDP=2.30D-06 DE=-8.30D-09 OVMax= 2.40D-05

 Cycle  14  Pass 1  IDiag  1:
 RMSU=  3.04D-08    CP:  9.98D-01  1.01D+00  3.18D-01  7.63D-01  8.76D-01
                    CP:  7.87D-01
 E= -1694.05379991690     Delta-E=       -0.000000000964 Rises=F Damp=F
 DIIS: error= 3.82D-07 at cycle   7 NSaved=   7.
 NSaved= 7 IEnMin= 7 EnMin= -1694.05379991690     IErMin= 7 ErrMin= 3.82D-07
 ErrMax= 3.82D-07  0.00D+00 EMaxC= 1.00D-01 BMatC= 5.83D-11 BMatP= 8.51D-10
 IDIUse=1 WtCom= 1.00D+00 WtEn= 0.00D+00
 Coeff-Com: -0.380D-03 0.419D-01 0.103D-01 0.461D-01 0.114D+00 0.283D+00
 Coeff-Com:  0.504D+00
 Coeff:     -0.380D-03 0.419D-01 0.103D-01 0.461D-01 0.114D+00 0.283D+00
 Coeff:      0.504D+00
 Gap=     0.068 Goal=   None    Shift=    0.000
 RMSDP=1.18D-08 MaxDP=4.57D-07 DE=-9.64D-10 OVMax= 4.24D-06

 Cycle  15  Pass 1  IDiag  1:
 RMSU=  7.22D-09    CP:  9.98D-01  1.01D+00  3.19D-01  7.65D-01  8.78D-01
                    CP:  8.07D-01  7.14D-01
 E= -1694.05379991695     Delta-E=       -0.000000000045 Rises=F Damp=F
 DIIS: error= 2.18D-07 at cycle   8 NSaved=   8.
 NSaved= 8 IEnMin= 8 EnMin= -1694.05379991695     IErMin= 8 ErrMin= 2.18D-07
 ErrMax= 2.18D-07  0.00D+00 EMaxC= 1.00D-01 BMatC= 1.31D-11 BMatP= 5.83D-11
 IDIUse=1 WtCom= 1.00D+00 WtEn= 0.00D+00
 Coeff-Com: -0.154D-04 0.116D-02 0.266D-03 0.210D-02 0.150D-01 0.855D-01
 Coeff-Com:  0.337D+00 0.559D+00
 Coeff:     -0.154D-04 0.116D-02 0.266D-03 0.210D-02 0.150D-01 0.855D-01
 Coeff:      0.337D+00 0.559D+00
 Gap=     0.068 Goal=   None    Shift=    0.000
 RMSDP=4.56D-09 MaxDP=1.84D-07 DE=-4.55D-11 OVMax= 1.64D-06

 SCF Done:  E(RB3LYP) =  -1694.05379992     A.U. after   15 cycles
            NFock= 15  Conv=0.46D-08     -V/T= 2.0044
 KE= 1.686698366596D+03 PE=-1.306542100666D+04 EE= 5.117166189589D+03
 Leave Link  502 at Wed Sep 27 17:00:10 2023, MaxMem=  3221225472 cpu:            3640.7 elap:             100.7
 (Enter /home/center/opt/aarch64/apps/gaussian16/c01/g16/l601.exe)
 Copying SCF densities to generalized density rwf, IOpCl= 0 IROHF=0.

 **********************************************************************

            Population analysis using the SCF Density.

 **********************************************************************

 Orbital symmetries:
       Occupied  (A") (A') (A') (A") (A") (A') (A") (A') (A') (A')
                 (A") (A') (A") (A') (A") (A') (A") (A') (A") (A')
                 (A") (A') (A") (A') (A") (A') (A') (A") (A') (A")
                 (A") (A') (A') (A") (A') (A') (A") (A") (A') (A')
                 (A") (A') (A") (A') (A') (A') (A") (A") (A') (A')
                 (A") (A") (A') (A') (A') (A") (A') (A") (A') (A')
                 (A") (A") (A") (A") (A') (A') (A') (A') (A") (A")
                 (A") (A") (A') (A") (A') (A') (A") (A') (A') (A')
                 (A') (A") (A") (A') (A") (A") (A') (A") (A') (A")
                 (A') (A') (A') (A") (A") (A') (A") (A") (A') (A')
                 (A') (A") (A') (A') (A') (A") (A') (A") (A') (A")
                 (A') (A') (A") (A") (A") (A") (A") (A") (A') (A')
                 (A') (A') (A') (A') (A") (A") (A') (A") (A") (A")
                 (A') (A") (A') (A') (A") (A") (A') (A') (A') (A')
                 (A") (A") (A") (A") (A') (A')
       Virtual   (A') (A') (A") (A") (A") (A") (A') (A') (A') (A")
                 (A') (A') (A") (A') (A") (A') (A') (A') (A") (A")
                 (A') (A') (A") (A') (A") (A") (A') (A") (A") (A')
                 (A") (A') (A") (A') (A') (A") (A") (A') (A") (A')
                 (A') (A') (A') (A") (A') (A") (A") (A") (A') (A")
                 (A') (A') (A') (A') (A') (A") (A') (A') (A") (A')
                 (A") (A") (A") (A") (A') (A') (A") (A") (A') (A")
                 (A') (A') (A") (A') (A") (A') (A") (A") (A') (A")
                 (A') (A') (A') (A') (A') (A") (A") (A') (A") (A')
                 (A') (A") (A') (A') (A") (A") (A") (A') (A") (A')
                 (A') (A") (A') (A") (A") (A') (A') (A') (A") (A")
                 (A") (A") (A') (A") (A') (A') (A") (A") (A') (A')
                 (A') (A") (A') (A') (A') (A') (A') (A") (A") (A')
                 (A") (A') (A') (A") (A') (A") (A') (A') (A") (A')
                 (A") (A') (A") (A") (A') (A") (A') (A") (A') (A")
                 (A") (A") (A') (A') (A") (A') (A') (A") (A') (A")
                 (A') (A") (A') (A') (A") (A') (A") (A") (A') (A")
                 (A") (A') (A") (A') (A') (A') (A') (A") (A') (A")
                 (A') (A') (A") (A") (A") (A') (A") (A') (A') (A")
                 (A") (A') (A") (A') (A") (A') (A') (A") (A") (A')
                 (A') (A") (A") (A') (A') (A") (A') (A') (A") (A')
                 (A") (A') (A") (A') (A") (A') (A") (A') (A") (A')
                 (A") (A") (A") (A') (A') (A") (A') (A') (A") (A')
                 (A") (A') (A") (A') (A") (A') (A") (A') (A") (A')
                 (A') (A") (A") (A") (A') (A') (A') (A") (A') (A')
                 (A") (A") (A') (A") (A') (A") (A') (A") (A") (A')
                 (A") (A') (A') (A') (A") (A") (A') (A') (A") (A')
                 (A") (A") (A') (A") (A") (A') (A') (A") (A") (A')
                 (A") (A') (A') (A') (A") (A') (A") (A") (A') (A")
                 (A') (A') (A") (A") (A") (A') (A") (A') (A') (A")
                 (A") (A') (A") (A') (A") (A") (A') (A') (A') (A')
                 (A') (A") (A') (A') (A") (A") (A") (A') (A") (A")
                 (A') (A') (A") (A') (A') (A") (A') (A") (A') (A")
                 (A") (A") (A') (A") (A') (A") (A') (A") (A') (A')
                 (A") (A') (A') (A') (A") (A") (A') (A") (A') (A')
                 (A") (A') (A") (A") (A') (A') (A') (A') (A") (A')
                 (A') (A") (A') (A") (A') (A") (A") (A") (A") (A')
                 (A") (A") (A") (A') (A") (A') (A") (A') (A') (A')
                 (A") (A') (A') (A") (A') (A") (A') (A') (A') (A")
                 (A') (A") (A') (A') (A") (A") (A") (A') (A") (A')
                 (A') (A") (A") (A') (A") (A') (A') (A") (A') (A")
                 (A") (A') (A') (A') (A") (A') (A") (A') (A") (A')
                 (A') (A') (A") (A') (A") (A') (A") (A') (A") (A')
                 (A") (A") (A") (A') (A") (A') (A') (A") (A') (A')
                 (A") (A") (A") (A") (A') (A") (A') (A") (A') (A')
                 (A") (A') (A") (A') (A") (A') (A') (A") (A") (A')
                 (A") (A") (A') (A') (A') (A") (A") (A') (A') (A")
                 (A') (A") (A') (A") (A') (A") (A") (A') (A") (A')
                 (A') (A") (A") (A') (A') (A') (A") (A") (A') (A")
                 (A") (A") (A') (A") (A") (A") (A") (A") (A') (A')
                 (A") (A') (A') (A') (A") (A') (A') (A') (A") (A")
                 (A') (A') (A') (A") (A') (A") (A') (A") (A") (A')
                 (A") (A') (A") (A") (A') (A') (A") (A') (A") (A')
                 (A") (A") (A') (A") (A') (A") (A") (A') (A') (A')
                 (A") (A") (A') (A') (A") (A') (A") (A') (A") (A")
                 (A') (A") (A') (A") (A") (A') (A') (A") (A') (A')
                 (A") (A') (A') (A") (A") (A') (A') (A") (A") (A')
                 (A") (A') (A') (A') (A') (A") (A') (A") (A') (A")
                 (A') (A") (A") (A') (A") (A') (A') (A") (A') (A")
                 (A") (A") (A") (A') (A') (A') (A") (A') (A") (A')
                 (A') (A") (A') (A') (A") (A') (A') (A") (A") (A')
                 (A') (A") (A") (A') (A') (A') (A") (A') (A") (A')
                 (A") (A') (A") (A') (A") (A") (A") (A') (A") (A')
                 (A') (A") (A') (A") (A') (A') (A') (A") (A') (A")
                 (A") (A') (A") (A") (A") (A') (A') (A') (A') (A")
                 (A") (A') (A') (A') (A") (A') (A") (A') (A') (A")
                 (A") (A") (A') (A") (A') (A") (A') (A') (A') (A")
                 (A') (A") (A") (A') (A") (A') (A") (A") (A') (A')
                 (A') (A') (A") (A") (A') (A") (A') (A") (A") (A")
                 (A') (A') (A") (A') (A') (A") (A') (A') (A") (A")
                 (A') (A') (A") (A") (A') (A") (A') (A") (A') (A")
                 (A') (A") (A") (A") (A') (A') (A') (A') (A") (A")
                 (A') (A") (A') (A') (A") (A') (A') (A") (A') (A")
                 (A") (A') (A') (A") (A") (A') (A') (A") (A') (A")
                 (A') (A") (A') (A") (A') (A') (A") (A') (A') (A')
                 (A") (A') (A") (A') (A") (A") (A') (A') (A") (A")
                 (A") (A') (A") (A") (A') (A") (A') (A") (A') (A")
                 (A') (A') (A") (A") (A') (A') (A') (A') (A") (A")
                 (A") (A") (A') (A') (A") (A') (A") (A') (A') (A')
                 (A") (A") (A") (A") (A') (A') (A') (A") (A') (A")
                 (A') (A') (A") (A') (A") (A") (A') (A') (A") (A')
                 (A') (A") (A') (A")
 The electronic state is 1-A'.
 Alpha  occ. eigenvalues --  -10.19483 -10.19483 -10.19403 -10.19402 -10.19401
 Alpha  occ. eigenvalues --  -10.19401 -10.19293 -10.19293 -10.18512 -10.18456
 Alpha  occ. eigenvalues --  -10.18451 -10.18450 -10.18428 -10.18428 -10.18411
 Alpha  occ. eigenvalues --  -10.18411 -10.18339 -10.18339 -10.18307 -10.18307
 Alpha  occ. eigenvalues --  -10.18232 -10.18232 -10.18207 -10.18207 -10.18180
 Alpha  occ. eigenvalues --  -10.18180 -10.18161 -10.18160 -10.18090 -10.18090
 Alpha  occ. eigenvalues --  -10.17286 -10.17286 -10.17246 -10.17234 -10.17234
 Alpha  occ. eigenvalues --  -10.17218 -10.17218 -10.17166 -10.17166 -10.17158
 Alpha  occ. eigenvalues --  -10.17127 -10.17127 -10.17064 -10.17064  -0.89863
 Alpha  occ. eigenvalues --   -0.88639  -0.88376  -0.87185  -0.86054  -0.84879
 Alpha  occ. eigenvalues --   -0.82917  -0.81750  -0.80360  -0.79104  -0.79022
 Alpha  occ. eigenvalues --   -0.78841  -0.77859  -0.77620  -0.76511  -0.75306
 Alpha  occ. eigenvalues --   -0.74754  -0.73586  -0.73418  -0.72221  -0.69718
 Alpha  occ. eigenvalues --   -0.68509  -0.67846  -0.66673  -0.63239  -0.62868
 Alpha  occ. eigenvalues --   -0.62051  -0.61711  -0.61662  -0.60505  -0.60372
 Alpha  occ. eigenvalues --   -0.59822  -0.59245  -0.58607  -0.58192  -0.57025
 Alpha  occ. eigenvalues --   -0.53211  -0.53096  -0.52795  -0.52044  -0.51878
 Alpha  occ. eigenvalues --   -0.51633  -0.50180  -0.49002  -0.48959  -0.47869
 Alpha  occ. eigenvalues --   -0.47668  -0.46697  -0.46497  -0.46155  -0.45978
 Alpha  occ. eigenvalues --   -0.45411  -0.44889  -0.44804  -0.44421  -0.43696
 Alpha  occ. eigenvalues --   -0.43278  -0.43111  -0.42519  -0.42370  -0.42075
 Alpha  occ. eigenvalues --   -0.41881  -0.41848  -0.41203  -0.41081  -0.40891
 Alpha  occ. eigenvalues --   -0.40866  -0.40692  -0.40099  -0.39993  -0.39739
 Alpha  occ. eigenvalues --   -0.38908  -0.38696  -0.37525  -0.37253  -0.36820
 Alpha  occ. eigenvalues --   -0.36084  -0.36048  -0.35711  -0.34816  -0.34598
 Alpha  occ. eigenvalues --   -0.34324  -0.33600  -0.33419  -0.33392  -0.33160
 Alpha  occ. eigenvalues --   -0.32826  -0.32278  -0.31556  -0.30897  -0.30061
 Alpha  occ. eigenvalues --   -0.28975  -0.28890  -0.27763  -0.27107  -0.25943
 Alpha  occ. eigenvalues --   -0.24857  -0.23709  -0.23101  -0.21904  -0.18408
 Alpha  occ. eigenvalues --   -0.17160
 Alpha virt. eigenvalues --   -0.10313  -0.09064  -0.05022  -0.03800  -0.03291
 Alpha virt. eigenvalues --   -0.02090  -0.00774   0.00497   0.01515   0.01556
 Alpha virt. eigenvalues --    0.02149   0.02711   0.02951   0.03505   0.03877
 Alpha virt. eigenvalues --    0.03954   0.04484   0.05350   0.05517   0.05873
 Alpha virt. eigenvalues --    0.06023   0.06571   0.07125   0.07644   0.07706
 Alpha virt. eigenvalues --    0.08020   0.08683   0.08935   0.09369   0.09536
 Alpha virt. eigenvalues --    0.10630   0.10858   0.11025   0.11560   0.11985
 Alpha virt. eigenvalues --    0.12821   0.13039   0.13127   0.13182   0.13961
 Alpha virt. eigenvalues --    0.14753   0.15288   0.15928   0.16680   0.17622
 Alpha virt. eigenvalues --    0.18014   0.18253   0.18791   0.19577   0.19784
 Alpha virt. eigenvalues --    0.20227   0.20418   0.22256   0.22587   0.23681
 Alpha virt. eigenvalues --    0.23752   0.23993   0.24069   0.25100   0.25228
 Alpha virt. eigenvalues --    0.26084   0.26298   0.26971   0.27224   0.27639
 Alpha virt. eigenvalues --    0.27860   0.28149   0.28416   0.28595   0.28861
 Alpha virt. eigenvalues --    0.28964   0.29265   0.29990   0.30009   0.30177
 Alpha virt. eigenvalues --    0.30334   0.30753   0.31195   0.31416   0.31845
 Alpha virt. eigenvalues --    0.32960   0.34176   0.34323   0.35182   0.35703
 Alpha virt. eigenvalues --    0.35929   0.36037   0.36153   0.36921   0.36940
 Alpha virt. eigenvalues --    0.37064   0.37225   0.37455   0.37754   0.38043
 Alpha virt. eigenvalues --    0.38125   0.38205   0.38471   0.38688   0.38997
 Alpha virt. eigenvalues --    0.39135   0.39313   0.39487   0.39517   0.40205
 Alpha virt. eigenvalues --    0.40269   0.40522   0.40716   0.40867   0.41347
 Alpha virt. eigenvalues --    0.41817   0.41872   0.42101   0.42184   0.42299
 Alpha virt. eigenvalues --    0.42361   0.42792   0.42871   0.43169   0.43417
 Alpha virt. eigenvalues --    0.43555   0.43825   0.44482   0.44650   0.44902
 Alpha virt. eigenvalues --    0.45013   0.45393   0.45502   0.45742   0.45810
 Alpha virt. eigenvalues --    0.45940   0.46034   0.46397   0.46441   0.46695
 Alpha virt. eigenvalues --    0.46806   0.47034   0.47154   0.47269   0.47564
 Alpha virt. eigenvalues --    0.47978   0.48468   0.48560   0.48661   0.48933
 Alpha virt. eigenvalues --    0.49379   0.49488   0.49791   0.49938   0.49950
 Alpha virt. eigenvalues --    0.50546   0.50794   0.51249   0.51610   0.52046
 Alpha virt. eigenvalues --    0.52054   0.52117   0.52266   0.53318   0.53963
 Alpha virt. eigenvalues --    0.54080   0.54518   0.55638   0.56081   0.56117
 Alpha virt. eigenvalues --    0.56613   0.56979   0.57739   0.57753   0.58525
 Alpha virt. eigenvalues --    0.58534   0.58784   0.59460   0.59580   0.60077
 Alpha virt. eigenvalues --    0.60441   0.60897   0.61293   0.61347   0.61399
 Alpha virt. eigenvalues --    0.61939   0.62021   0.62197   0.62388   0.62652
 Alpha virt. eigenvalues --    0.62684   0.63123   0.63530   0.63586   0.63749
 Alpha virt. eigenvalues --    0.64035   0.64253   0.64560   0.64916   0.65206
 Alpha virt. eigenvalues --    0.65458   0.65811   0.66072   0.66185   0.67478
 Alpha virt. eigenvalues --    0.67858   0.67933   0.69581   0.69772   0.70297
 Alpha virt. eigenvalues --    0.70535   0.70624   0.71539   0.71806   0.72166
 Alpha virt. eigenvalues --    0.72664   0.72730   0.73759   0.74000   0.74230
 Alpha virt. eigenvalues --    0.74437   0.74989   0.75148   0.76026   0.76549
 Alpha virt. eigenvalues --    0.76875   0.77217   0.77864   0.78138   0.78253
 Alpha virt. eigenvalues --    0.78339   0.78678   0.79681   0.79733   0.80379
 Alpha virt. eigenvalues --    0.80396   0.80654   0.81110   0.81934   0.82206
 Alpha virt. eigenvalues --    0.82463   0.82557   0.82830   0.83122   0.84035
 Alpha virt. eigenvalues --    0.84039   0.84105   0.84378   0.84768   0.84882
 Alpha virt. eigenvalues --    0.85197   0.85976   0.86390   0.86709   0.87570
 Alpha virt. eigenvalues --    0.88602   0.89336   0.89720   0.89727   0.91162
 Alpha virt. eigenvalues --    0.91227   0.91677   0.91910   0.93220   0.93298
 Alpha virt. eigenvalues --    0.94141   0.94411   0.95686   0.95742   0.95851
 Alpha virt. eigenvalues --    0.95974   0.96163   0.96737   0.97589   0.97899
 Alpha virt. eigenvalues --    0.98098   0.98694   0.99173   0.99235   0.99412
 Alpha virt. eigenvalues --    0.99957   1.00120   1.01192   1.01898   1.02496
 Alpha virt. eigenvalues --    1.02927   1.03049   1.03081   1.03737   1.03880
 Alpha virt. eigenvalues --    1.04243   1.04248   1.05157   1.05304   1.05352
 Alpha virt. eigenvalues --    1.05951   1.06158   1.06264   1.06463   1.06735
 Alpha virt. eigenvalues --    1.07448   1.07914   1.08105   1.08303   1.08408
 Alpha virt. eigenvalues --    1.09308   1.09401   1.09975   1.10016   1.10205
 Alpha virt. eigenvalues --    1.10755   1.11110   1.11783   1.12243   1.12760
 Alpha virt. eigenvalues --    1.12964   1.13209   1.13899   1.14042   1.14070
 Alpha virt. eigenvalues --    1.14819   1.15203   1.15443   1.15917   1.16403
 Alpha virt. eigenvalues --    1.17769   1.18091   1.18238   1.19613   1.20251
 Alpha virt. eigenvalues --    1.21161   1.21892   1.22753   1.23154   1.23528
 Alpha virt. eigenvalues --    1.24446   1.25513   1.27758   1.28327   1.30126
 Alpha virt. eigenvalues --    1.30177   1.30603   1.32244   1.32271   1.32939
 Alpha virt. eigenvalues --    1.34414   1.34986   1.35715   1.36338   1.37716
 Alpha virt. eigenvalues --    1.39079   1.39160   1.40031   1.40064   1.40546
 Alpha virt. eigenvalues --    1.40569   1.40847   1.41154   1.41548   1.42169
 Alpha virt. eigenvalues --    1.42765   1.43458   1.44146   1.44914   1.45010
 Alpha virt. eigenvalues --    1.45602   1.46199   1.46587   1.46929   1.47156
 Alpha virt. eigenvalues --    1.47447   1.47729   1.48313   1.48879   1.49268
 Alpha virt. eigenvalues --    1.49514   1.49625   1.50064   1.50161   1.50678
 Alpha virt. eigenvalues --    1.50790   1.51513   1.51585   1.52345   1.53040
 Alpha virt. eigenvalues --    1.53229   1.54095   1.54408   1.54597   1.54872
 Alpha virt. eigenvalues --    1.54967   1.55002   1.55074   1.55703   1.55820
 Alpha virt. eigenvalues --    1.56644   1.57321   1.57662   1.57796   1.58156
 Alpha virt. eigenvalues --    1.58942   1.59941   1.60448   1.60501   1.61243
 Alpha virt. eigenvalues --    1.61926   1.62251   1.62706   1.63227   1.63891
 Alpha virt. eigenvalues --    1.64437   1.64951   1.66770   1.66935   1.67619
 Alpha virt. eigenvalues --    1.68896   1.69285   1.69744   1.70561   1.70706
 Alpha virt. eigenvalues --    1.70833   1.71429   1.72048   1.72136   1.72224
 Alpha virt. eigenvalues --    1.72695   1.72907   1.73000   1.73566   1.73889
 Alpha virt. eigenvalues --    1.73997   1.74267   1.74568   1.75805   1.75884
 Alpha virt. eigenvalues --    1.77122   1.78358   1.78861   1.79145   1.79727
 Alpha virt. eigenvalues --    1.80234   1.80443   1.80685   1.81060   1.81326
 Alpha virt. eigenvalues --    1.81575   1.81742   1.81852   1.82704   1.82750
 Alpha virt. eigenvalues --    1.83087   1.84488   1.84575   1.85062   1.85569
 Alpha virt. eigenvalues --    1.85752   1.86461   1.87063   1.87305   1.87636
 Alpha virt. eigenvalues --    1.87895   1.88100   1.88322   1.88436   1.88597
 Alpha virt. eigenvalues --    1.88742   1.89115   1.89204   1.90586   1.90962
 Alpha virt. eigenvalues --    1.91184   1.91435   1.91452   1.92302   1.92593
 Alpha virt. eigenvalues --    1.92761   1.92929   1.93176   1.93492   1.93556
 Alpha virt. eigenvalues --    1.93784   1.93806   1.94546   1.94603   1.94806
 Alpha virt. eigenvalues --    1.95553   1.95880   1.96264   1.96271   1.97743
 Alpha virt. eigenvalues --    1.98692   1.99605   2.00158   2.00416   2.00661
 Alpha virt. eigenvalues --    2.00859   2.01325   2.02471   2.02672   2.04095
 Alpha virt. eigenvalues --    2.05351   2.05520   2.07569   2.07781   2.08735
 Alpha virt. eigenvalues --    2.08924   2.09466   2.10446   2.10914   2.11124
 Alpha virt. eigenvalues --    2.11187   2.12111   2.12984   2.13922   2.15051
 Alpha virt. eigenvalues --    2.15403   2.15809   2.16783   2.16825   2.17616
 Alpha virt. eigenvalues --    2.17852   2.19451   2.20376   2.21671   2.21701
 Alpha virt. eigenvalues --    2.22174   2.22481   2.22690   2.23234   2.23896
 Alpha virt. eigenvalues --    2.24422   2.25243   2.25370   2.26462   2.26824
 Alpha virt. eigenvalues --    2.26876   2.27420   2.27554   2.28033   2.28061
 Alpha virt. eigenvalues --    2.28507   2.29526   2.29959   2.31157   2.31691
 Alpha virt. eigenvalues --    2.33460   2.35270   2.35471   2.36566   2.38900
 Alpha virt. eigenvalues --    2.39436   2.40008   2.40535   2.40789   2.41494
 Alpha virt. eigenvalues --    2.42682   2.42857   2.44861   2.44971   2.45444
 Alpha virt. eigenvalues --    2.45635   2.46037   2.46494   2.46815   2.49608
 Alpha virt. eigenvalues --    2.50886   2.52049   2.53003   2.53173   2.53399
 Alpha virt. eigenvalues --    2.54082   2.54783   2.54939   2.55658   2.56229
 Alpha virt. eigenvalues --    2.56386   2.57914   2.58447   2.59078   2.59388
 Alpha virt. eigenvalues --    2.59681   2.60402   2.60547   2.60627   2.60801
 Alpha virt. eigenvalues --    2.61124   2.61213   2.61306   2.61852   2.62579
 Alpha virt. eigenvalues --    2.62684   2.63963   2.63968   2.64175   2.64221
 Alpha virt. eigenvalues --    2.65145   2.65629   2.65871   2.65937   2.66927
 Alpha virt. eigenvalues --    2.67463   2.67701   2.68214   2.68219   2.68398
 Alpha virt. eigenvalues --    2.68941   2.69132   2.69284   2.69620   2.69652
 Alpha virt. eigenvalues --    2.69759   2.70261   2.70325   2.70880   2.71261
 Alpha virt. eigenvalues --    2.71839   2.71840   2.72030   2.72270   2.72965
 Alpha virt. eigenvalues --    2.73718   2.74548   2.74708   2.75244   2.75372
 Alpha virt. eigenvalues --    2.76439   2.77275   2.77415   2.77485   2.78007
 Alpha virt. eigenvalues --    2.78400   2.78717   2.78852   2.79445   2.80054
 Alpha virt. eigenvalues --    2.80495   2.80645   2.81326   2.81789   2.81862
 Alpha virt. eigenvalues --    2.82722   2.83636   2.84177   2.85288   2.86115
 Alpha virt. eigenvalues --    2.86367   2.86853   2.87348   2.88199   2.88705
 Alpha virt. eigenvalues --    2.88746   2.90593   2.91549   2.91843   2.92467
 Alpha virt. eigenvalues --    2.92821   2.93015   2.93663   2.94897   2.95057
 Alpha virt. eigenvalues --    2.95901   2.96547   2.96882   2.97508   2.98058
 Alpha virt. eigenvalues --    2.98863   3.00275   3.00611   3.04005   3.04535
 Alpha virt. eigenvalues --    3.06119   3.06698   3.07593   3.08790   3.08811
 Alpha virt. eigenvalues --    3.10714   3.11235   3.15891   3.16037   3.16651
 Alpha virt. eigenvalues --    3.16962   3.17197   3.17830   3.19776   3.20090
 Alpha virt. eigenvalues --    3.20968   3.21913   3.23274   3.24537   3.29002
 Alpha virt. eigenvalues --    3.29593   3.30081   3.30505   3.31778   3.32759
 Alpha virt. eigenvalues --    3.34932   3.35318   3.35765   3.36175   3.36446
 Alpha virt. eigenvalues --    3.36886   3.37024   3.37326   3.37911   3.38972
 Alpha virt. eigenvalues --    3.39834   3.41038   3.41502   3.42850   3.44904
 Alpha virt. eigenvalues --    3.45462   3.45882   3.46516   3.48043   3.48237
 Alpha virt. eigenvalues --    3.49317   3.49504   3.50612   3.51227   3.52752
 Alpha virt. eigenvalues --    3.54704   3.57208   3.58537   3.58660   3.59723
 Alpha virt. eigenvalues --    3.61493   3.62521   3.62566   3.63235   3.63651
 Alpha virt. eigenvalues --    3.63677   3.65327   3.66055   3.66816   3.67030
 Alpha virt. eigenvalues --    3.67886   3.68077   3.69149   3.69273   4.00147
 Alpha virt. eigenvalues --    4.00202   4.01453   4.01549   4.01660   4.01823
 Alpha virt. eigenvalues --    4.02664   4.02996   4.15804   4.16402   4.17106
 Alpha virt. eigenvalues --    4.18048   4.18326   4.19605   4.21118   4.22161
 Alpha virt. eigenvalues --    4.22272   4.22943   4.23666   4.24240   4.25264
 Alpha virt. eigenvalues --    4.27378   4.38115   4.40088   4.61951   4.63995
 Alpha virt. eigenvalues --    4.78690   4.79313   4.80061   4.80302   4.80712
 Alpha virt. eigenvalues --    4.81754   4.82157   4.82585   4.84006   4.84551
 Alpha virt. eigenvalues --   23.38931  23.40911  23.54480  23.55955  23.69171
 Alpha virt. eigenvalues --   23.70259  23.77134  23.78573  23.80337  23.81215
 Alpha virt. eigenvalues --   23.81546  23.82675  23.85917  23.87043  23.88864
 Alpha virt. eigenvalues --   23.88956  23.89999  23.90053  23.91943  23.93259
 Alpha virt. eigenvalues --   23.97080  23.97909  23.98371  23.99124  24.08607
 Alpha virt. eigenvalues --   24.09429  24.09868  24.10049  24.10681  24.11291
 Alpha virt. eigenvalues --   24.11810  24.13178  24.13313  24.13890  24.14700
 Alpha virt. eigenvalues --   24.15326  24.15349  24.15416  24.16437  24.16470
 Alpha virt. eigenvalues --   24.19994  24.20040  24.21264  24.21319
          Condensed to atoms (all electrons):
 Mulliken charges:
               1
     1  C   -0.057664
     2  C   -0.032826
     3  C   -0.051148
     4  C   -0.088766
     5  C   -0.089010
     6  C   -0.083268
     7  C   -0.007168
     8  C   -0.055004
     9  C   -0.062648
    10  C   -0.024609
    11  H    0.084342
    12  H    0.077395
    13  H    0.079968
    14  H    0.088522
    15  H    0.097162
    16  H    0.096677
    17  C   -0.011252
    18  C   -0.055004
    19  C   -0.065693
    20  C   -0.024609
    21  H    0.076062
    22  H    0.078773
    23  C   -0.007168
    24  C   -0.057664
    25  C   -0.062648
    26  C   -0.032826
    27  H    0.077395
    28  H    0.079968
    29  C   -0.051148
    30  C   -0.089010
    31  C   -0.088766
    32  C   -0.083268
    33  H    0.084342
    34  H    0.096677
    35  H    0.097162
    36  H    0.088522
    37  C   -0.029873
    38  C   -0.104913
    39  C   -0.061353
    40  C   -0.045418
    41  C   -0.087751
    42  C   -0.113168
    43  C   -0.027460
    44  C   -0.018690
    45  C   -0.008113
    46  C   -0.108603
    47  H    0.079425
    48  H    0.071330
    49  H    0.100431
    50  H    0.101404
    51  H    0.087712
    52  H    0.091926
    53  C   -0.031333
    54  C   -0.018690
    55  C   -0.013129
    56  C   -0.108603
    57  H    0.069941
    58  H    0.098943
    59  C   -0.027460
    60  C   -0.029873
    61  C   -0.008113
    62  C   -0.104913
    63  H    0.071330
    64  H    0.100431
    65  C   -0.061353
    66  C   -0.087751
    67  C   -0.045418
    68  C   -0.113168
    69  H    0.079425
    70  H    0.091926
    71  H    0.087712
    72  H    0.101404
 Sum of Mulliken charges =   0.00000
 Mulliken charges with hydrogens summed into heavy atoms:
               1
     1  C   -0.057664
     2  C   -0.032826
     3  C    0.033193
     4  C   -0.000243
     5  C    0.007667
     6  C    0.013894
     7  C    0.070227
     8  C   -0.055004
     9  C    0.017320
    10  C   -0.024609
    17  C    0.064810
    18  C   -0.055004
    19  C    0.013080
    20  C   -0.024609
    23  C    0.070227
    24  C   -0.057664
    25  C    0.017320
    26  C   -0.032826
    29  C    0.033193
    30  C    0.007667
    31  C   -0.000243
    32  C    0.013894
    37  C   -0.029873
    38  C   -0.104913
    39  C    0.018072
    40  C    0.055986
    41  C    0.004175
    42  C   -0.025456
    43  C    0.043870
    44  C   -0.018690
    45  C    0.092318
    46  C   -0.108603
    53  C    0.038608
    54  C   -0.018690
    55  C    0.085814
    56  C   -0.108603
    59  C    0.043870
    60  C   -0.029873
    61  C    0.092318
    62  C   -0.104913
    65  C    0.018072
    66  C    0.004175
    67  C    0.055986
    68  C   -0.025456
         Mulliken charges condensed to fragments:
      1      0.021801
      2     -0.021801
 Electronic spatial extent (au):  <R**2>=          26825.4723
 Charge=              0.0000 electrons
 Dipole moment (field-independent basis, Debye):
    X=              1.0416    Y=             -1.0347    Z=              0.0000  Tot=              1.4681
 Quadrupole moment (field-independent basis, Debye-Ang):
   XX=           -246.1730   YY=           -248.6000   ZZ=           -219.0708
   XY=             -0.5112   XZ=              0.0000   YZ=              0.0000
 Traceless Quadrupole moment (field-independent basis, Debye-Ang):
   XX=             -8.2250   YY=            -10.6521   ZZ=             18.8771
   XY=             -0.5112   XZ=              0.0000   YZ=              0.0000
 Octapole moment (field-independent basis, Debye-Ang**2):
  XXX=             96.1070  YYY=            179.6873  ZZZ=              0.0000  XYY=            -21.8349
  XXY=            -71.6874  XXZ=              0.0000  XZZ=             18.6195  YZZ=            -25.0679
  YYZ=              0.0000  XYZ=              0.0000
 Hexadecapole moment (field-independent basis, Debye-Ang**3):
 XXXX=          -3211.9426 YYYY=         -11057.3192 ZZZZ=         -20993.6045 XXXY=           2173.8820
 XXXZ=              0.0000 YYYX=           2188.2823 YYYZ=              0.0000 ZZZX=              0.0000
 ZZZY=              0.0000 XXYY=          -2459.1748 XXZZ=          -4455.2084 YYZZ=          -5632.5248
 XXYZ=              0.0000 YYXZ=              0.0000 ZZXY=            639.7449
 N-N= 4.567502650553D+03 E-N=-1.306542097505D+04  KE= 1.686698366596D+03
 Symmetry A'   KE= 9.134267262125D+02
 Symmetry A"   KE= 7.732716403833D+02
 No NMR shielding tensors so no spin-rotation constants.
 Leave Link  601 at Wed Sep 27 17:00:14 2023, MaxMem=  3221225472 cpu:              52.1 elap:               1.4
 (Enter /home/center/opt/aarch64/apps/gaussian16/c01/g16/l122.exe)
 CPIOFr:  IOpCl= 0 IRwI=-1 IRwCP=  731 ICalc= -1 LCPTot=     1419224 Len1MO=     3708034 IndFrg=     1419224
 CPIOFr:  IOpCl= 0 IRwI=-1 IRwCP=  731 ICalc=  0 LCPTot=     1419224 Len1MO=     3708034 IndFrg=     5127258
 Counterpoise: doing calculation for fragment   1 using the basis set of the full-system, NewBq=T
 Leave Link  122 at Wed Sep 27 17:00:16 2023, MaxMem=  3221225472 cpu:               8.3 elap:               0.4
 (Enter /home/center/opt/aarch64/apps/gaussian16/c01/g16/l301.exe)
 Basis read from rwf:  (5D, 7F)
 No pseudopotential information found on rwf file.
 There are   528 symmetry adapted cartesian basis functions of A'  symmetry.
 There are   476 symmetry adapted cartesian basis functions of A"  symmetry.
 There are   504 symmetry adapted basis functions of A'  symmetry.
 There are   456 symmetry adapted basis functions of A"  symmetry.
   960 basis functions,  1632 primitive gaussians,  1004 cartesian basis functions
    73 alpha electrons       73 beta electrons
       nuclear repulsion energy      1494.3575060022 Hartrees.
 IExCor=  402 DFT=T Ex+Corr=B3LYP ExCW=0 ScaHFX=  0.200000
 ScaDFX=  0.800000  0.720000  1.000000  0.810000 ScalE2=  1.000000  1.000000
 IRadAn=      5 IRanWt=     -1 IRanGd=            0 ICorTp=0 IEmpDi=131
 NAtoms=   72 NActive=   72 NUniq=   40 SFac= 3.24D+00 NAtFMM=   60 NAOKFM=T Big=F
 Integral buffers will be    131072 words long.
 Raffenetti 2 integral format.
 Two-electron integral symmetry is turned on.
 R6Disp:  Grimme-D3 Dispersion energy=       -0.0303938888 Hartrees.
 Nuclear repulsion after empirical dispersion term =     1494.3271121133 Hartrees.
 No density basis found on file    718.
 Leave Link  301 at Wed Sep 27 17:00:19 2023, MaxMem=  3221225472 cpu:               3.2 elap:               0.1
 (Enter /home/center/opt/aarch64/apps/gaussian16/c01/g16/l302.exe)
 NPDir=0 NMtPBC=     1 NCelOv=     1 NCel=       1 NClECP=     1 NCelD=      1
         NCelK=      1 NCelE2=     1 NClLst=     1 CellRange=     0.0.
 One-electron integrals computed using PRISM.
 One-electron integral symmetry used in STVInt
 NBasis=   960 RedAO= T EigKep=  3.91D-05  NBF=   504   456
 NBsUse=   960 1.00D-06 EigRej= -1.00D+00 NBFU=   504   456
 Precomputing XC quadrature grid using
 IXCGrd= 4 IRadAn=           5 IRanWt=          -1 IRanGd=           0 AccXCQ= 0.00D+00.
 Generated NRdTot=       0 NPtTot=           0 NUsed=           0 NTot=          32
 NSgBfM=   989   989   989   989   989 MxSgAt=    72 MxSgA2=    72.
 Leave Link  302 at Wed Sep 27 17:00:23 2023, MaxMem=  3221225472 cpu:              59.8 elap:               1.6
 (Enter /home/center/opt/aarch64/apps/gaussian16/c01/g16/l303.exe)
 DipDrv:  MaxL=1.
 Leave Link  303 at Wed Sep 27 17:00:25 2023, MaxMem=  3221225472 cpu:              12.9 elap:               0.4
 (Enter /home/center/opt/aarch64/apps/gaussian16/c01/g16/l401.exe)
 ExpMin= 1.03D-01 ExpMax= 4.56D+03 ExpMxC= 6.82D+02 IAcc=3 IRadAn=         5 AccDes= 0.00D+00
 Harris functional with IExCor=  402 and IRadAn=       5 diagonalized for initial guess.
 HarFok:  IExCor=  402 AccDes= 0.00D+00 IRadAn=         5 IDoV= 1 UseB2=F ITyADJ=14
 ICtDFT=  3500011 ScaDFX=  1.000000  1.000000  1.000000  1.000000
 FoFCou: FMM=F IPFlag=           0 FMFlag=      100000 FMFlg1=        2000
         NFxFlg=           0 DoJE=T BraDBF=F KetDBF=T FulRan=T
         wScrn=  0.000000 ICntrl=       500 IOpCl=  0 I1Cent=   200000004 NGrid=           0
         NMat0=    1 NMatS0=      1 NMatT0=    0 NMatD0=    1 NMtDS0=    0 NMtDT0=    0
 Petite list used in FoFCou.
 Harris En= -847.065350402456    
 JPrj=0 DoOrth=F DoCkMO=F.
 Initial guess orbital symmetries:
       Occupied  (A") (A') (A') (A") (A") (A') (A") (A') (A') (A")
                 (A") (A') (A') (A') (A") (A') (A") (A') (A") (A')
                 (A') (A") (A') (A") (A') (A") (A') (A') (A") (A')
                 (A") (A") (A') (A') (A") (A") (A') (A") (A') (A')
                 (A') (A") (A") (A") (A') (A') (A") (A') (A') (A")
                 (A') (A") (A") (A') (A') (A") (A') (A") (A') (A")
                 (A") (A') (A') (A") (A') (A") (A') (A") (A') (A')
                 (A") (A") (A')
       Virtual   (A') (A") (A") (A') (A') (A") (A') (A") (A') (A")
                 (A') (A') (A") (A') (A") (A') (A") (A') (A') (A")
                 (A") (A') (A') (A") (A") (A') (A') (A') (A') (A")
                 (A') (A") (A') (A") (A") (A') (A') (A") (A") (A')
                 (A') (A") (A") (A') (A") (A') (A') (A") (A") (A')
                 (A") (A') (A") (A') (A') (A') (A") (A") (A') (A')
                 (A") (A') (A") (A") (A') (A') (A') (A") (A') (A")
                 (A') (A") (A") (A") (A') (A') (A') (A') (A") (A')
                 (A') (A') (A") (A") (A') (A") (A') (A") (A') (A")
                 (A") (A") (A") (A') (A') (A") (A") (A') (A') (A')
                 (A') (A") (A') (A') (A") (A') (A') (A") (A") (A')
                 (A') (A") (A") (A') (A") (A") (A') (A") (A') (A")
                 (A") (A') (A') (A') (A") (A') (A') (A') (A") (A')
                 (A") (A') (A") (A') (A") (A') (A') (A") (A') (A")
                 (A") (A') (A') (A") (A") (A') (A") (A") (A') (A")
                 (A') (A') (A") (A") (A') (A') (A") (A') (A') (A")
                 (A') (A') (A") (A") (A') (A") (A') (A") (A') (A")
                 (A') (A') (A") (A") (A') (A") (A') (A") (A') (A")
                 (A") (A') (A') (A') (A") (A") (A') (A') (A") (A")
                 (A') (A') (A') (A") (A') (A") (A') (A') (A") (A")
                 (A') (A") (A') (A") (A") (A") (A') (A') (A") (A')
                 (A') (A") (A') (A") (A") (A') (A') (A") (A") (A")
                 (A') (A') (A') (A") (A') (A') (A") (A') (A') (A")
                 (A") (A') (A') (A") (A') (A") (A") (A') (A") (A")
                 (A") (A') (A') (A') (A") (A') (A') (A") (A") (A")
                 (A') (A") (A") (A') (A') (A') (A') (A') (A") (A")
                 (A") (A') (A") (A') (A') (A') (A") (A") (A') (A')
                 (A") (A") (A') (A") (A") (A') (A") (A') (A') (A")
                 (A') (A") (A") (A') (A') (A') (A") (A") (A') (A')
                 (A") (A') (A") (A') (A") (A') (A') (A') (A') (A")
                 (A") (A') (A") (A") (A') (A") (A') (A") (A") (A")
                 (A") (A') (A') (A') (A') (A') (A") (A') (A") (A')
                 (A") (A") (A') (A') (A") (A') (A") (A') (A") (A')
                 (A') (A") (A') (A') (A') (A") (A") (A') (A') (A")
                 (A") (A') (A") (A") (A') (A") (A') (A") (A') (A')
                 (A") (A') (A") (A') (A") (A') (A") (A') (A') (A')
                 (A') (A") (A') (A") (A") (A') (A") (A") (A') (A")
                 (A') (A") (A') (A") (A') (A") (A') (A") (A") (A')
                 (A") (A') (A") (A') (A") (A') (A') (A') (A") (A")
                 (A') (A") (A') (A") (A') (A') (A") (A") (A') (A")
                 (A") (A') (A') (A") (A") (A') (A') (A") (A') (A")
                 (A') (A") (A') (A') (A") (A') (A") (A') (A") (A")
                 (A') (A') (A") (A') (A") (A') (A") (A") (A') (A")
                 (A") (A') (A') (A') (A') (A") (A') (A") (A") (A')
                 (A") (A') (A') (A") (A") (A') (A') (A") (A') (A")
                 (A") (A') (A') (A') (A') (A") (A") (A') (A") (A")
                 (A') (A") (A') (A") (A') (A") (A") (A') (A') (A')
                 (A") (A') (A") (A') (A") (A") (A") (A') (A') (A")
                 (A') (A") (A") (A') (A") (A') (A') (A") (A") (A')
                 (A') (A") (A') (A") (A') (A") (A') (A') (A") (A")
                 (A') (A") (A') (A") (A') (A') (A") (A") (A') (A")
                 (A') (A') (A') (A") (A") (A") (A") (A') (A') (A')
                 (A") (A") (A') (A") (A') (A") (A') (A') (A") (A')
                 (A') (A") (A') (A") (A') (A') (A") (A') (A") (A')
                 (A") (A") (A') (A") (A') (A') (A') (A") (A') (A")
                 (A") (A") (A') (A') (A') (A") (A") (A') (A') (A")
                 (A") (A') (A') (A") (A") (A") (A') (A') (A") (A')
                 (A") (A') (A') (A') (A") (A') (A") (A') (A") (A')
                 (A") (A") (A") (A') (A") (A') (A") (A') (A') (A")
                 (A') (A') (A') (A") (A') (A") (A') (A") (A') (A")
                 (A") (A') (A") (A") (A') (A") (A') (A') (A") (A')
                 (A") (A') (A') (A") (A') (A") (A') (A") (A') (A')
                 (A") (A') (A") (A") (A') (A") (A") (A') (A') (A")
                 (A") (A') (A") (A") (A") (A') (A') (A') (A') (A')
                 (A") (A") (A') (A") (A') (A') (A") (A') (A") (A")
                 (A') (A') (A") (A") (A') (A') (A") (A") (A") (A')
                 (A") (A") (A') (A') (A") (A') (A") (A') (A") (A')
                 (A') (A") (A") (A') (A') (A") (A') (A") (A') (A')
                 (A") (A') (A") (A') (A") (A') (A") (A') (A') (A")
[...]
                 (A') (A") (A') (A') (A') (A") (A") (A") (A") (A')
                 (A') (A') (A") (A") (A') (A") (A') (A") (A') (A')
                 (A") (A") (A')
       Virtual   (A') (A") (A") (A') (A') (A") (A') (A') (A') (A")
                 (A") (A') (A") (A') (A") (A') (A") (A") (A') (A")
                 (A') (A') (A") (A') (A") (A') (A') (A') (A') (A")
                 (A") (A") (A") (A') (A') (A") (A') (A") (A') (A")
                 (A') (A') (A') (A") (A') (A") (A") (A') (A') (A")
                 (A") (A') (A') (A") (A') (A") (A") (A") (A') (A")
                 (A') (A') (A') (A') (A') (A") (A') (A') (A") (A")
                 (A") (A') (A') (A') (A") (A') (A") (A") (A") (A')
                 (A') (A") (A') (A") (A") (A') (A") (A') (A') (A')
                 (A') (A') (A") (A") (A") (A") (A') (A") (A') (A")
                 (A') (A') (A') (A") (A") (A') (A') (A") (A') (A")
                 (A') (A") (A") (A") (A') (A') (A") (A') (A') (A")
                 (A') (A") (A") (A') (A') (A") (A') (A") (A') (A")
                 (A") (A') (A') (A') (A') (A") (A") (A") (A') (A")
                 (A') (A") (A') (A") (A') (A') (A") (A") (A') (A")
                 (A') (A") (A') (A") (A') (A') (A") (A') (A") (A")
                 (A') (A") (A') (A') (A") (A") (A') (A") (A') (A")
                 (A') (A') (A") (A') (A') (A") (A") (A') (A') (A')
                 (A") (A') (A") (A") (A") (A") (A') (A") (A') (A')
                 (A") (A') (A") (A') (A') (A') (A") (A') (A") (A')
                 (A") (A") (A') (A') (A") (A") (A') (A') (A") (A')
                 (A') (A') (A') (A") (A") (A") (A") (A') (A') (A")
                 (A') (A") (A") (A') (A") (A') (A") (A') (A") (A')
                 (A") (A') (A') (A") (A') (A") (A") (A') (A') (A")
                 (A") (A') (A') (A") (A") (A') (A") (A") (A") (A')
                 (A') (A") (A') (A') (A") (A') (A') (A") (A') (A")
                 (A") (A') (A") (A') (A') (A") (A") (A") (A') (A')
                 (A") (A') (A') (A") (A") (A") (A') (A") (A') (A')
                 (A") (A') (A") (A') (A") (A') (A') (A') (A") (A')
                 (A") (A") (A') (A') (A") (A") (A') (A") (A') (A")
                 (A') (A') (A") (A") (A') (A') (A") (A') (A') (A')
                 (A") (A") (A') (A") (A') (A") (A') (A") (A') (A')
                 (A') (A") (A") (A") (A') (A") (A') (A') (A') (A")
                 (A") (A') (A") (A') (A') (A") (A') (A") (A") (A')
                 (A') (A") (A') (A") (A") (A') (A') (A") (A') (A")
                 (A') (A") (A') (A") (A') (A") (A") (A') (A') (A")
                 (A') (A") (A') (A') (A") (A") (A') (A") (A') (A')
                 (A") (A') (A") (A') (A') (A") (A') (A") (A') (A")
                 (A") (A') (A") (A') (A") (A') (A") (A') (A') (A")
                 (A") (A') (A") (A') (A') (A") (A") (A') (A') (A")
                 (A') (A") (A') (A") (A') (A') (A")
 The electronic state is 1-A'.
 Alpha  occ. eigenvalues --  -10.18931 -10.18930 -10.18896 -10.18895 -10.18848
 Alpha  occ. eigenvalues --  -10.18848 -10.18813 -10.18813 -10.17956 -10.17955
 Alpha  occ. eigenvalues --  -10.17920 -10.17920 -10.17919 -10.17919 -10.17875
 Alpha  occ. eigenvalues --  -10.17875 -10.17863 -10.17863 -10.17808 -10.17808
 Alpha  occ. eigenvalues --  -10.17781 -10.17781  -0.89340  -0.87865  -0.85549
 Alpha  occ. eigenvalues --   -0.82415  -0.79820  -0.78521  -0.78314  -0.75991
 Alpha  occ. eigenvalues --   -0.74255  -0.72901  -0.69196  -0.67344  -0.62728
 Alpha  occ. eigenvalues --   -0.62370  -0.61108  -0.59964  -0.59301  -0.57689
 Alpha  occ. eigenvalues --   -0.52709  -0.52573  -0.52293  -0.49654  -0.48513
 Alpha  occ. eigenvalues --   -0.47160  -0.46110  -0.45590  -0.45476  -0.43928
 Alpha  occ. eigenvalues --   -0.43182  -0.42578  -0.41808  -0.41572  -0.41386
 Alpha  occ. eigenvalues --   -0.40692  -0.40405  -0.39579  -0.38193  -0.36732
 Alpha  occ. eigenvalues --   -0.36341  -0.35550  -0.34094  -0.33809  -0.33058
 Alpha  occ. eigenvalues --   -0.32930  -0.31612  -0.29665  -0.28406  -0.26623
 Alpha  occ. eigenvalues --   -0.24364  -0.22582  -0.17855
 Alpha virt. eigenvalues --   -0.09755  -0.04464  -0.02747  -0.00147   0.02073
 Alpha virt. eigenvalues --    0.02370   0.03189   0.04746   0.04859   0.04871
 Alpha virt. eigenvalues --    0.06161   0.06575   0.07968   0.08162   0.08303
 Alpha virt. eigenvalues --    0.09607   0.10049   0.11524   0.11533   0.13796
 Alpha virt. eigenvalues --    0.14111   0.14670   0.18092   0.18194   0.18832
 Alpha virt. eigenvalues --    0.19391   0.22815   0.23002   0.24379   0.24942
 Alpha virt. eigenvalues --    0.25581   0.27528   0.27575   0.28012   0.28228
 Alpha virt. eigenvalues --    0.28947   0.29389   0.30158   0.30759   0.31175
 Alpha virt. eigenvalues --    0.32897   0.34528   0.36420   0.36484   0.37134
 Alpha virt. eigenvalues --    0.37503   0.37629   0.37651   0.38116   0.38643
 Alpha virt. eigenvalues --    0.39094   0.39439   0.39739   0.40236   0.40435
 Alpha virt. eigenvalues --    0.41918   0.41926   0.41940   0.42289   0.42318
 Alpha virt. eigenvalues --    0.42643   0.43748   0.44233   0.44835   0.45295
 Alpha virt. eigenvalues --    0.45683   0.45924   0.45953   0.46379   0.47165
 Alpha virt. eigenvalues --    0.47805   0.47809   0.47978   0.48073   0.48231
 Alpha virt. eigenvalues --    0.48568   0.49414   0.49572   0.51377   0.51846
 Alpha virt. eigenvalues --    0.52370   0.53118   0.53671   0.55998   0.57923
 Alpha virt. eigenvalues --    0.57955   0.59048   0.59201   0.60433   0.60585
 Alpha virt. eigenvalues --    0.60693   0.61101   0.61690   0.62105   0.62173
 Alpha virt. eigenvalues --    0.63432   0.63481   0.64458   0.64535   0.65533
 Alpha virt. eigenvalues --    0.66693   0.66910   0.67680   0.67724   0.70658
 Alpha virt. eigenvalues --    0.71305   0.71405   0.71494   0.72803   0.73989
 Alpha virt. eigenvalues --    0.75405   0.75894   0.76289   0.77801   0.77809
 Alpha virt. eigenvalues --    0.78943   0.79160   0.79723   0.81162   0.81509
 Alpha virt. eigenvalues --    0.82881   0.83001   0.84383   0.84585   0.84713
 Alpha virt. eigenvalues --    0.88087   0.89711   0.89765   0.91536   0.92083
 Alpha virt. eigenvalues --    0.92578   0.93749   0.95806   0.96107   0.96442
 Alpha virt. eigenvalues --    0.96590   0.96905   0.98547   1.00356   1.01118
 Alpha virt. eigenvalues --    1.02686   1.03027   1.03354   1.04405   1.05244
 Alpha virt. eigenvalues --    1.05439   1.05525   1.05950   1.07395   1.07547
 Alpha virt. eigenvalues --    1.07686   1.08438   1.10005   1.10036   1.12070
 Alpha virt. eigenvalues --    1.13223   1.13544   1.13650   1.14526   1.15341
 Alpha virt. eigenvalues --    1.17432   1.18332   1.19657   1.20432   1.23014
 Alpha virt. eigenvalues --    1.23618   1.27884   1.28234   1.30579   1.32076
 Alpha virt. eigenvalues --    1.32743   1.34942   1.37641   1.39236   1.39896
 Alpha virt. eigenvalues --    1.39942   1.40725   1.42751   1.43476   1.43554
 Alpha virt. eigenvalues --    1.45057   1.46086   1.47119   1.47538   1.48841
 Alpha virt. eigenvalues --    1.49280   1.49417   1.50258   1.50674   1.52268
 Alpha virt. eigenvalues --    1.52650   1.53402   1.54331   1.54372   1.54781
 Alpha virt. eigenvalues --    1.54807   1.57107   1.57715   1.58569   1.59882
 Alpha virt. eigenvalues --    1.60106   1.62692   1.63242   1.64856   1.66641
 Alpha virt. eigenvalues --    1.69292   1.69605   1.69709   1.70649   1.71804
 Alpha virt. eigenvalues --    1.72459   1.72619   1.73075   1.73096   1.73680
 Alpha virt. eigenvalues --    1.77494   1.78519   1.79157   1.79419   1.80511
 Alpha virt. eigenvalues --    1.81616   1.81887   1.82058   1.83581   1.84039
 Alpha virt. eigenvalues --    1.85487   1.87392   1.87456   1.87577   1.87728
 Alpha virt. eigenvalues --    1.88131   1.88613   1.90743   1.91387   1.92190
 Alpha virt. eigenvalues --    1.92193   1.92572   1.92670   1.93517   1.93938
 Alpha virt. eigenvalues --    1.94544   1.95483   1.97262   1.99429   2.00088
 Alpha virt. eigenvalues --    2.00602   2.01362   2.03019   2.05757   2.08293
 Alpha virt. eigenvalues --    2.09111   2.09256   2.09792   2.12192   2.14098
 Alpha virt. eigenvalues --    2.15528   2.15584   2.17200   2.19751   2.20833
 Alpha virt. eigenvalues --    2.21576   2.22525   2.23381   2.24503   2.26441
 Alpha virt. eigenvalues --    2.26972   2.27242   2.27719   2.28046   2.29391
 Alpha virt. eigenvalues --    2.33301   2.35725   2.39155   2.39384   2.40817
 Alpha virt. eigenvalues --    2.42649   2.43076   2.45776   2.45994   2.46870
 Alpha virt. eigenvalues --    2.51623   2.51954   2.53354   2.53485   2.55138
 Alpha virt. eigenvalues --    2.56159   2.58701   2.58838   2.59764   2.59776
 Alpha virt. eigenvalues --    2.60682   2.61147   2.61719   2.62222   2.63349
 Alpha virt. eigenvalues --    2.63999   2.64478   2.66054   2.66794   2.67121
 Alpha virt. eigenvalues --    2.67374   2.68356   2.68872   2.68876   2.69372
 Alpha virt. eigenvalues --    2.69557   2.69907   2.70083   2.70281   2.73482
 Alpha virt. eigenvalues --    2.74771   2.74836   2.76066   2.77101   2.77577
 Alpha virt. eigenvalues --    2.78232   2.78455   2.78850   2.80822   2.82359
 Alpha virt. eigenvalues --    2.85535   2.85993   2.86737   2.87294   2.90966
 Alpha virt. eigenvalues --    2.91783   2.92195   2.93676   2.95232   2.95887
 Alpha virt. eigenvalues --    2.99270   2.99858   3.03165   3.05604   3.06852
 Alpha virt. eigenvalues --    3.07371   3.15988   3.16029   3.16647   3.19843
 Alpha virt. eigenvalues --    3.20017   3.23601   3.29134   3.29680   3.31610
 Alpha virt. eigenvalues --    3.35095   3.35458   3.35677   3.35858   3.38023
 Alpha virt. eigenvalues --    3.39887   3.41413   3.44960   3.45362   3.47993
 Alpha virt. eigenvalues --    3.48278   3.50401   3.53073   3.57439   3.58649
 Alpha virt. eigenvalues --    3.61466   3.62620   3.63208   3.63698   3.65910
 Alpha virt. eigenvalues --    3.67534   3.67678   4.00384   4.00442   4.01859
 Alpha virt. eigenvalues --    4.02182   4.16133   4.16678   4.17360   4.21240
 Alpha virt. eigenvalues --    4.22396   4.22517   4.25488   4.38492   4.62290
 Alpha virt. eigenvalues --    4.79179   4.79740   4.80562   4.82562   4.83014
 Alpha virt. eigenvalues --   23.39176  23.54541  23.69085  23.77378  23.80419
 Alpha virt. eigenvalues --   23.81537  23.86099  23.89067  23.89154  23.92210
 Alpha virt. eigenvalues --   23.97563  23.98365  24.09049  24.09932  24.10529
 Alpha virt. eigenvalues --   24.12220  24.13779  24.14375  24.15775  24.15810
 Alpha virt. eigenvalues --   24.20452  24.20497
          Condensed to atoms (all electrons):
 Mulliken charges:
               1
     1  C    0.000000
     2  C    0.000000
     3  C    0.000000
     4  C    0.000000
     5  C    0.000000
     6  C    0.000000
     7  C    0.000000
     8  C    0.000000
     9  C    0.000000
    10  C    0.000000
    11  H    0.000000
    12  H    0.000000
    13  H    0.000000
    14  H    0.000000
    15  H    0.000000
    16  H    0.000000
    17  C    0.000000
    18  C    0.000000
    19  C    0.000000
    20  C    0.000000
    21  H    0.000000
    22  H    0.000000
    23  C    0.000000
    24  C    0.000000
    25  C    0.000000
    26  C    0.000000
    27  H    0.000000
    28  H    0.000000
    29  C    0.000000
    30  C    0.000000
    31  C    0.000000
    32  C    0.000000
    33  H    0.000000
    34  H    0.000000
    35  H    0.000000
    36  H    0.000000
    37  C   -0.059168
    38  C   -0.059168
    39  C   -0.055977
    40  C   -0.055977
    41  C   -0.092198
    42  C   -0.092198
    43  C   -0.016525
    44  C   -0.054498
    45  C   -0.016525
    46  C   -0.054498
    47  H    0.082122
    48  H    0.074853
    49  H    0.074853
    50  H    0.082122
    51  H    0.094847
    52  H    0.094847
    53  C   -0.020341
    54  C   -0.054498
    55  C   -0.020341
    56  C   -0.054498
    57  H    0.073428
    58  H    0.073428
    59  C   -0.016525
    60  C   -0.059168
    61  C   -0.016525
    62  C   -0.059168
    63  H    0.074853
    64  H    0.074853
    65  C   -0.055977
    66  C   -0.092198
    67  C   -0.055977
    68  C   -0.092198
    69  H    0.082122
    70  H    0.094847
    71  H    0.094847
    72  H    0.082122
 Sum of Mulliken charges =   0.00000
 Mulliken charges with hydrogens summed into heavy atoms:
               1
     1  C    0.000000
     2  C    0.000000
     3  C    0.000000
     4  C    0.000000
     5  C    0.000000
     6  C    0.000000
     7  C    0.000000
     8  C    0.000000
     9  C    0.000000
    10  C    0.000000
    17  C    0.000000
    18  C    0.000000
    19  C    0.000000
    20  C    0.000000
    23  C    0.000000
    24  C    0.000000
    25  C    0.000000
    26  C    0.000000
    29  C    0.000000
    30  C    0.000000
    31  C    0.000000
    32  C    0.000000
    37  C   -0.059168
    38  C   -0.059168
    39  C    0.026144
    40  C    0.026144
    41  C    0.002649
    42  C    0.002649
    43  C    0.058328
    44  C   -0.054498
    45  C    0.058328
    46  C   -0.054498
    53  C    0.053087
    54  C   -0.054498
    55  C    0.053087
    56  C   -0.054498
    59  C    0.058328
    60  C   -0.059168
    61  C    0.058328
    62  C   -0.059168
    65  C    0.026144
    66  C    0.002649
    67  C    0.026144
    68  C    0.002649
         Mulliken charges condensed to fragments:
      1      0.000000
      2      0.000000
 Electronic spatial extent (au):  <R**2>=          23668.5966
 Charge=              0.0000 electrons
 Dipole moment (field-independent basis, Debye):
    X=              0.0000    Y=              0.0000    Z=              0.0000  Tot=              0.0000
 Quadrupole moment (field-independent basis, Debye-Ang):
   XX=           -136.3921   YY=           -110.7480   ZZ=           -109.0115
   XY=              0.0000   XZ=              0.0000   YZ=              0.0000
 Traceless Quadrupole moment (field-independent basis, Debye-Ang):
   XX=            -17.6749   YY=              7.9692   ZZ=              9.7057
   XY=              0.0000   XZ=              0.0000   YZ=              0.0000
 Octapole moment (field-independent basis, Debye-Ang**2):
  XXX=           1518.9891  YYY=           1233.3933  ZZZ=              0.0000  XYY=            411.1311
  XXY=            506.3297  XXZ=              0.0000  XZZ=            404.6845  YZZ=            404.6845
  YYZ=              0.0000  XYZ=              0.0000
 Hexadecapole moment (field-independent basis, Debye-Ang**3):
 XXXX=         -11432.3224 YYYY=         -10274.1947 ZZZZ=         -10461.4324 XXXY=          -5638.9592
 XXXZ=              0.0000 YYYX=          -4578.7390 YYYZ=              0.0000 ZZZX=              0.0000
 ZZZY=              0.0000 XXYY=          -3662.3148 XXZZ=          -3710.2464 YYZZ=          -3471.5288
 XXYZ=              0.0000 YYXZ=              0.0000 ZZXY=          -1502.3144
 N-N= 1.494327111825D+03 E-N=-4.953709175190D+03  KE= 8.433374904940D+02
 Symmetry A'   KE= 4.567052305393D+02
 Symmetry A"   KE= 3.866322599548D+02
 No NMR shielding tensors so no spin-rotation constants.
 Leave Link  601 at Wed Sep 27 17:18:10 2023, MaxMem=  3221225472 cpu:              18.5 elap:               0.5
 (Enter /home/center/opt/aarch64/apps/gaussian16/c01/g16/l122.exe)
 CPIOFr:  IOpCl= 0 IRwI=-1 IRwCP=  731 ICalc=  4 LCPTot=     1419224 Len1MO=     3708034 IndFrg=    19959394
 Restoring MOs from calculation   1 to rwf.
 CPIOFr:  IOpCl= 0 IRwI=-2 IRwCP=  731 ICalc=  0 LCPTot=     1419224 Len1MO=     3708034 IndFrg=     5127258
 Counterpoise corrected energy =   -1694.040106620802
                   BSSE energy =      -0.000000635337
              sum of fragments =   -1694.039683044260
           complexation energy =      -0.27 kcal/mole (raw)
           complexation energy =      -0.27 kcal/mole (corrected)
 Leave Link  122 at Wed Sep 27 17:18:12 2023, MaxMem=  3221225472 cpu:               8.3 elap:               0.3
 (Enter /home/center/opt/aarch64/apps/gaussian16/c01/g16/l9999.exe)

 Test job not archived.
 1\1\GINC-FX0462\SP\RB3LYP\6-311G(d,p)\C44H28\Z40145W\27-Sep-2023\0\\#P
  TEST b3lyp/6-311G** EmpiricalDispersion=GD3 counterpoise=2\\pentacene
 _A1=0_A2=0_A3=45_p2\\0,1\C,0,-0.5039478476,0.5239478476,-3.6612755801\
 C,0,0.5239480325,-0.5039480325,-3.6612755629\C,0,-0.9861248463,1.00612
 48463,-4.9235927708\C,0,1.0061250889,-0.9861250889,-4.9235926697\C,0,-
 0.4963213507,0.5163213507,-6.096356521\C,0,0.5163216812,-0.4963216812,
 -6.0963564796\C,0,-0.9844684311,1.0044684311,-2.4533174875\C,0,-0.5044
 88426,0.524488426,-1.2140288145\C,0,1.0044685359,-0.9844685359,-2.4533
 173917\C,0,0.5244885437,-0.5044885437,-1.2140288362\H,0,-1.7533559667,
 1.7733559667,-4.9232600459\H,0,-1.7521866813,1.7721866813,-2.453928581
 5\H,0,1.7721859268,-1.7521859268,-2.4539284818\H,0,1.7733558421,-1.753
 3558421,-4.9232597785\H,0,0.8905568758,-0.8705568758,-7.0425276922\H,0
 ,-0.8705565046,0.8905565046,-7.042527775\C,0,-0.9848184961,1.004818496
 1,0.0099998782\C,0,-0.5044883957,0.5244883957,1.2340295553\C,0,1.00481
 85643,-0.9848185643,0.0099998696\C,0,0.5244885146,-0.5044885146,1.2340
 295261\H,0,-1.7524699697,1.7724699697,0.0099999205\H,0,1.772468921,-1.
 752468921,0.0099999641\C,0,-0.9844683048,1.0044683048,2.4733171385\C,0
 ,-0.5039477114,0.5239477114,3.681276331\C,0,1.0044684211,-0.9844684211
 ,2.4733170835\C,0,0.5239479079,-0.5039479079,3.6812763217\H,0,-1.75218
 65527,1.7721865527,2.4739285326\H,0,1.7721858092,-1.7521858092,2.47392
 83796\C,0,-0.9861245177,1.0061245177,4.9435920588\C,0,-0.4963209372,0.
 5163209372,6.116356633\C,0,1.0061247659,-0.9861247659,4.9435919377\C,0
 ,0.5163212637,-0.4963212637,6.1163566075\H,0,-1.7533556504,1.773355650
 4,4.9432601504\H,0,-0.8705567426,0.8905567426,7.0625274368\H,0,0.89055
 70967,-0.8705570967,7.0625272142\H,0,1.7733555414,-1.7533555414,4.9432
 599297\C,0,9.9960521524,0.5239478476,-3.6612755801\C,0,11.0239480325,-
 0.5039480325,-3.6612755629\C,0,9.5138751537,1.0061248463,-4.9235927708
 \C,0,11.5061250889,-0.9861250889,-4.9235926697\C,0,10.0036786493,0.516
 3213507,-6.096356521\C,0,11.0163216812,-0.4963216812,-6.0963564796\C,0
 ,9.5155315689,1.0044684311,-2.4533174875\C,0,9.995511574,0.524488426,-
 1.2140288145\C,0,11.5044685359,-0.9844685359,-2.4533173917\C,0,11.0244
 885437,-0.5044885437,-1.2140288362\H,0,8.7466440333,1.7733559667,-4.92
 32600459\H,0,8.7478133187,1.7721866813,-2.4539285815\H,0,12.2721859268
 ,-1.7521859268,-2.4539284818\H,0,12.2733558421,-1.7533558421,-4.923259
 7785\H,0,11.3905568758,-0.8705568758,-7.0425276922\H,0,9.6294434954,0.
 8905565046,-7.042527775\C,0,9.5151815039,1.0048184961,0.0099998782\C,0
 ,9.9955116043,0.5244883957,1.2340295553\C,0,11.5048185643,-0.984818564
 3,0.0099998696\C,0,11.0244885146,-0.5044885146,1.2340295261\H,0,8.7475
 300303,1.7724699697,0.0099999205\H,0,12.272468921,-1.752468921,0.00999
 99641\C,0,9.5155316952,1.0044683048,2.4733171385\C,0,9.9960522886,0.52
 39477114,3.681276331\C,0,11.5044684211,-0.9844684211,2.4733170835\C,0,
 11.0239479079,-0.5039479079,3.6812763217\H,0,8.7478134473,1.7721865527
 ,2.4739285326\H,0,12.2721858092,-1.7521858092,2.4739283796\C,0,9.51387
 54823,1.0061245177,4.9435920588\C,0,10.0036790628,0.5163209372,6.11635
 6633\C,0,11.5061247659,-0.9861247659,4.9435919377\C,0,11.0163212637,-0
 .4963212637,6.1163566075\H,0,8.7466443496,1.7733556504,4.9432601504\H,
 0,9.6294432574,0.8905567426,7.0625274368\H,0,11.3905570967,-0.87055709
 67,7.0625272142\H,0,12.2733555414,-1.7533555414,4.9432599297\\Version=
 Fujitsu-Arm-G16RevC.01\State=1-A'\HF=-847.0198415\RMSD=3.182e-09\Dipol
 e=0.0000253,-0.0000253,0.\Quadrupole=-7.5868367,-6.8621618,14.4489985,
 -18.6436216,0.,0.\PG=CS [SG(C4H4),X(C40H24)]\\@


 COLLEGE PROFESSOR: SOMEONE WHO TALKS IN OTHER PEOPLE'S SLEEP.
 Job cpu time:       0 days  2 hours 32 minutes 27.2 seconds.
 Elapsed time:       0 days  0 hours  4 minutes  3.3 seconds.
 File lengths (MBytes):  RWF=    718 Int=      0 D2E=      0 Chk=    208 Scr=      1
 Normal termination of Gaussian 16 at Wed Sep 27 17:18:18 2023.
