 Entering Gaussian System, Link 0=g16
 Initial command:
 /home/center/opt/aarch64/apps/gaussian16/c01/g16/l1.exe "/data/tmp/Gtmp/1006955/Gau-49.inp" -scrdir="/data/tmp/Gtmp/1006955/"
 Entering Link 1 = /home/center/opt/aarch64/apps/gaussian16/c01/g16/l1.exe PID=        50.
  
 Copyright (c) 1988-2019, Gaussian, Inc.  All Rights Reserved.
  
 This is part of the Gaussian(R) 16 program.  It is based on
 the Gaussian(R) 09 system (copyright 2009, Gaussian, Inc.),
 the Gaussian(R) 03 system (copyright 2003, Gaussian, Inc.),
 the Gaussian(R) 98 system (copyright 1998, Gaussian, Inc.),
 the Gaussian(R) 94 system (copyright 1995, Gaussian, Inc.),
 the Gaussian 92(TM) system (copyright 1992, Gaussian, Inc.),
 the Gaussian 90(TM) system (copyright 1990, Gaussian, Inc.),
 the Gaussian 88(TM) system (copyright 1988, Gaussian, Inc.),
 the Gaussian 86(TM) system (copyright 1986, Carnegie Mellon
 University), and the Gaussian 82(TM) system (copyright 1983,
 Carnegie Mellon University). Gaussian is a federally registered
 trademark of Gaussian, Inc.
  
 This software contains proprietary and confidential information,
 including trade secrets, belonging to Gaussian, Inc.
  
 This software is provided under written license and may be
 used, copied, transmitted, or stored only in accord with that
 written license.
  
 The following legend is applicable only to US Government
 contracts under FAR:
  
                    RESTRICTED RIGHTS LEGEND
  
 Use, reproduction and disclosure by the US Government is
 subject to restrictions as set forth in subparagraphs (a)
 and (c) of the Commercial Computer Software - Restricted
 Rights clause in FAR 52.227-19.
  
 Gaussian, Inc.
 340 Quinnipiac St., Bldg. 40, Wallingford CT 06492
  
  
 ---------------------------------------------------------------
 Warning -- This program may not be used in any manner that
 competes with the business of Gaussian, Inc. or will provide
 assistance to any competitor of Gaussian, Inc.  The licensee
 of this program is prohibited from giving any competitor of
 Gaussian, Inc. access to this program.  By using this program,
 the user acknowledges that Gaussian, Inc. is engaged in the
 business of creating and licensing software in the field of
 computational chemistry and represents and warrants to the
 licensee that it is not a competitor of Gaussian, Inc. and that
 it will not use this program in any manner prohibited above.
 ---------------------------------------------------------------
  

 Cite this work as:
 Gaussian 16, Revision C.01,
 M. J. Frisch, G. W. Trucks, H. B. Schlegel, G. E. Scuseria, 
 M. A. Robb, J. R. Cheeseman, G. Scalmani, V. Barone, 
 G. A. Petersson, H. Nakatsuji, X. Li, M. Caricato, A. V. Marenich, 
 J. Bloino, B. G. Janesko, R. Gomperts, B. Mennucci, H. P. Hratchian, 
 J. V. Ortiz, A. F. Izmaylov, J. L. Sonnenberg, D. Williams-Young, 
 F. Ding, F. Lipparini, F. Egidi, J. Goings, B. Peng, A. Petrone, 
 T. Henderson, D. Ranasinghe, V. G. Zakrzewski, J. Gao, N. Rega, 
 G. Zheng, W. Liang, M. Hada, M. Ehara, K. Toyota, R. Fukuda, 
 J. Hasegawa, M. Ishida, T. Nakajima, Y. Honda, O. Kitao, H. Nakai, 
 T. Vreven, K. Throssell, J. A. Montgomery, Jr., J. E. Peralta, 
 F. Ogliaro, M. J. Bearpark, J. J. Heyd, E. N. Brothers, K. N. Kudin, 
 V. N. Staroverov, T. A. Keith, R. Kobayashi, J. Normand, 
 K. Raghavachari, A. P. Rendell, J. C. Burant, S. S. Iyengar, 
 J. Tomasi, M. Cossi, J. M. Millam, M. Klene, C. Adamo, R. Cammi, 
 J. W. Ochterski, R. L. Martin, K. Morokuma, O. Farkas, 
 J. B. Foresman, and D. J. Fox, Gaussian, Inc., Wallingford CT, 2019.
 
 ************************************************
 Gaussian 16:  Fujitsu-Arm-G16RevC.01  3-Jul-2019
                   27-Sep-2023 
 ************************************************
 %mem=24GB
 %nproc=42
 Will use up to   42 processors via shared memory.
 -------------------------------------------------------------
 #P TEST b3lyp/6-311G** EmpiricalDispersion=GD3 counterpoise=2
 -------------------------------------------------------------
 1/38=1,62=2,172=1/1;
 2/12=2,17=6,18=5,40=1/2;
 1/38=1,53=2,62=2,63=1/22;
 3/5=4,6=6,7=101,11=2,25=1,30=1,74=-5,124=31/1,2,3;
 4//1;
 5/5=2,38=5/2;
 6/7=2,8=2,9=2,10=2,28=1/1;
 1/53=2,62=2,63=1/22;
 3/5=7,6=11,7=101,11=2,25=1,30=1,74=-5,82=7,124=31/1,2,3;
 4//1;
 5/5=2,38=5/2;
 6/7=2,8=2,9=2,10=2,28=1/1;
 1/53=2,62=2,63=1/22(-4);
 99/5=1,9=1/99;
 Leave Link    1 at Wed Sep 27 16:37:44 2023, MaxMem=  3221225472 cpu:               7.0 elap:               0.2
 (Enter /home/center/opt/aarch64/apps/gaussian16/c01/g16/l101.exe)
 ----------------------------
 pentacene_A1=0_A2=0_A3=45_t1
 ----------------------------
 Symbolic Z-matrix:
 Charge =  0 Multiplicity = 1 in supermolecule
 Charge =  0 Multiplicity = 1 in fragment      1.
 Charge =  0 Multiplicity = 1 in fragment      2.
 C(Fragment=1)        -0.50395   0.52395  -3.66128 
 C(Fragment=1)         0.52395  -0.50395  -3.66128 
 C(Fragment=1)        -0.98612   1.00612  -4.92359 
 C(Fragment=1)         1.00613  -0.98613  -4.92359 
 C(Fragment=1)        -0.49632   0.51632  -6.09636 
 C(Fragment=1)         0.51632  -0.49632  -6.09636 
 C(Fragment=1)        -0.98447   1.00447  -2.45332 
 C(Fragment=1)        -0.50449   0.52449  -1.21403 
 C(Fragment=1)         1.00447  -0.98447  -2.45332 
 C(Fragment=1)         0.52449  -0.50449  -1.21403 
 H(Fragment=1)        -1.75336   1.77336  -4.92326 
 H(Fragment=1)        -1.75219   1.77219  -2.45393 
 H(Fragment=1)         1.77219  -1.75219  -2.45393 
 H(Fragment=1)         1.77336  -1.75336  -4.92326 
 H(Fragment=1)         0.89056  -0.87056  -7.04253 
 H(Fragment=1)        -0.87056   0.89056  -7.04253 
 C(Fragment=1)        -0.98482   1.00482   0.01 
 C(Fragment=1)        -0.50449   0.52449   1.23403 
 C(Fragment=1)         1.00482  -0.98482   0.01 
 C(Fragment=1)         0.52449  -0.50449   1.23403 
 H(Fragment=1)        -1.75247   1.77247   0.01 
 H(Fragment=1)         1.77247  -1.75247   0.01 
 C(Fragment=1)        -0.98447   1.00447   2.47332 
 C(Fragment=1)        -0.50395   0.52395   3.68128 
 C(Fragment=1)         1.00447  -0.98447   2.47332 
 C(Fragment=1)         0.52395  -0.50395   3.68128 
 H(Fragment=1)        -1.75219   1.77219   2.47393 
 H(Fragment=1)         1.77219  -1.75219   2.47393 
 C(Fragment=1)        -0.98612   1.00612   4.94359 
 C(Fragment=1)        -0.49632   0.51632   6.11636 
 C(Fragment=1)         1.00612  -0.98612   4.94359 
 C(Fragment=1)         0.51632  -0.49632   6.11636 
 H(Fragment=1)        -1.75336   1.77336   4.94326 
 H(Fragment=1)        -0.87056   0.89056   7.06253 
 H(Fragment=1)         0.89056  -0.87056   7.06253 
 H(Fragment=1)         1.77336  -1.75336   4.94326 
 C(Fragment=2)         4.02395   3.77395  -3.66128 
 C(Fragment=2)         2.99605   2.74605  -3.66128 
 C(Fragment=2)         4.50612   4.25612  -4.92359 
 C(Fragment=2)         2.51387   2.26387  -4.92359 
 C(Fragment=2)         4.01632   3.76632  -6.09636 
 C(Fragment=2)         3.00368   2.75368  -6.09636 
 C(Fragment=2)         4.50447   4.25447  -2.45332 
 C(Fragment=2)         4.02449   3.77449  -1.21403 
 C(Fragment=2)         2.51553   2.26553  -2.45332 
 C(Fragment=2)         2.99551   2.74551  -1.21403 
 H(Fragment=2)         5.27336   5.02336  -4.92326 
 H(Fragment=2)         5.27219   5.02219  -2.45393 
 H(Fragment=2)         1.74781   1.49781  -2.45393 
 H(Fragment=2)         1.74664   1.49664  -4.92326 
 H(Fragment=2)         2.62944   2.37944  -7.04253 
 H(Fragment=2)         4.39056   4.14056  -7.04253 
 C(Fragment=2)         4.50482   4.25482   0.01 
 C(Fragment=2)         4.02449   3.77449   1.23403 
 C(Fragment=2)         2.51518   2.26518   0.01 
 C(Fragment=2)         2.99551   2.74551   1.23403 
 H(Fragment=2)         5.27247   5.02247   0.01 
 H(Fragment=2)         1.74753   1.49753   0.01 
 C(Fragment=2)         4.50447   4.25447   2.47332 
 C(Fragment=2)         4.02395   3.77395   3.68128 
 C(Fragment=2)         2.51553   2.26553   2.47332 
 C(Fragment=2)         2.99605   2.74605   3.68128 
 H(Fragment=2)         5.27219   5.02219   2.47393 
 H(Fragment=2)         1.74781   1.49781   2.47393 
 C(Fragment=2)         4.50612   4.25612   4.94359 
 C(Fragment=2)         4.01632   3.76632   6.11636 
 C(Fragment=2)         2.51388   2.26388   4.94359 
 C(Fragment=2)         3.00368   2.75368   6.11636 
 H(Fragment=2)         5.27336   5.02336   4.94326 
 H(Fragment=2)         4.39056   4.14056   7.06253 
 H(Fragment=2)         2.62944   2.37944   7.06253 
 H(Fragment=2)         1.74664   1.49664   4.94326 
 
 ITRead=  0  0  0  0  0  0  0  0  0  0  0  0  0  0  0  0  0  0  0  0
 ITRead=  0  0  0  0  0  0  0  0  0  0  0  0  0  0  0  0  0  0  0  0
 ITRead=  0  0  0  0  0  0  0  0  0  0  0  0  0  0  0  0  0  0  0  0
 ITRead=  0  0  0  0  0  0  0  0  0  0  0  0
 MicOpt= -1 -1 -1 -1 -1 -1 -1 -1 -1 -1 -1 -1 -1 -1 -1 -1 -1 -1 -1 -1
 MicOpt= -1 -1 -1 -1 -1 -1 -1 -1 -1 -1 -1 -1 -1 -1 -1 -1 -1 -1 -1 -1
 MicOpt= -1 -1 -1 -1 -1 -1 -1 -1 -1 -1 -1 -1 -1 -1 -1 -1 -1 -1 -1 -1
 MicOpt= -1 -1 -1 -1 -1 -1 -1 -1 -1 -1 -1 -1
 NAtoms=     72 NQM=       72 NQMF=       0 NMMI=      0 NMMIF=      0
                NMic=       0 NMicF=      0.
                    Isotopes and Nuclear Properties:
 (Nuclear quadrupole moments (NQMom) in fm**2, nuclear magnetic moments (NMagM)
  in nuclear magnetons)

  Atom         1           2           3           4           5           6           7           8           9          10
 IAtWgt=          12          12          12          12          12          12          12          12          12          12
 AtmWgt=  12.0000000  12.0000000  12.0000000  12.0000000  12.0000000  12.0000000  12.0000000  12.0000000  12.0000000  12.0000000
 NucSpn=           0           0           0           0           0           0           0           0           0           0
 AtZEff=   0.0000000   0.0000000   0.0000000   0.0000000   0.0000000   0.0000000   0.0000000   0.0000000   0.0000000   0.0000000
 NQMom=    0.0000000   0.0000000   0.0000000   0.0000000   0.0000000   0.0000000   0.0000000   0.0000000   0.0000000   0.0000000
 NMagM=    0.0000000   0.0000000   0.0000000   0.0000000   0.0000000   0.0000000   0.0000000   0.0000000   0.0000000   0.0000000
 AtZNuc=   6.0000000   6.0000000   6.0000000   6.0000000   6.0000000   6.0000000   6.0000000   6.0000000   6.0000000   6.0000000

  Atom        11          12          13          14          15          16          17          18          19          20
 IAtWgt=           1           1           1           1           1           1          12          12          12          12
 AtmWgt=   1.0078250   1.0078250   1.0078250   1.0078250   1.0078250   1.0078250  12.0000000  12.0000000  12.0000000  12.0000000
 NucSpn=           1           1           1           1           1           1           0           0           0           0
 AtZEff=   0.0000000   0.0000000   0.0000000   0.0000000   0.0000000   0.0000000   0.0000000   0.0000000   0.0000000   0.0000000
 NQMom=    0.0000000   0.0000000   0.0000000   0.0000000   0.0000000   0.0000000   0.0000000   0.0000000   0.0000000   0.0000000
 NMagM=    2.7928460   2.7928460   2.7928460   2.7928460   2.7928460   2.7928460   0.0000000   0.0000000   0.0000000   0.0000000
 AtZNuc=   1.0000000   1.0000000   1.0000000   1.0000000   1.0000000   1.0000000   6.0000000   6.0000000   6.0000000   6.0000000

  Atom        21          22          23          24          25          26          27          28          29          30
 IAtWgt=           1           1          12          12          12          12           1           1          12          12
 AtmWgt=   1.0078250   1.0078250  12.0000000  12.0000000  12.0000000  12.0000000   1.0078250   1.0078250  12.0000000  12.0000000
 NucSpn=           1           1           0           0           0           0           1           1           0           0
 AtZEff=   0.0000000   0.0000000   0.0000000   0.0000000   0.0000000   0.0000000   0.0000000   0.0000000   0.0000000   0.0000000
 NQMom=    0.0000000   0.0000000   0.0000000   0.0000000   0.0000000   0.0000000   0.0000000   0.0000000   0.0000000   0.0000000
 NMagM=    2.7928460   2.7928460   0.0000000   0.0000000   0.0000000   0.0000000   2.7928460   2.7928460   0.0000000   0.0000000
 AtZNuc=   1.0000000   1.0000000   6.0000000   6.0000000   6.0000000   6.0000000   1.0000000   1.0000000   6.0000000   6.0000000

  Atom        31          32          33          34          35          36          37          38          39          40
 IAtWgt=          12          12           1           1           1           1          12          12          12          12
 AtmWgt=  12.0000000  12.0000000   1.0078250   1.0078250   1.0078250   1.0078250  12.0000000  12.0000000  12.0000000  12.0000000
 NucSpn=           0           0           1           1           1           1           0           0           0           0
 AtZEff=   0.0000000   0.0000000   0.0000000   0.0000000   0.0000000   0.0000000   0.0000000   0.0000000   0.0000000   0.0000000
 NQMom=    0.0000000   0.0000000   0.0000000   0.0000000   0.0000000   0.0000000   0.0000000   0.0000000   0.0000000   0.0000000
 NMagM=    0.0000000   0.0000000   2.7928460   2.7928460   2.7928460   2.7928460   0.0000000   0.0000000   0.0000000   0.0000000
 AtZNuc=   6.0000000   6.0000000   1.0000000   1.0000000   1.0000000   1.0000000   6.0000000   6.0000000   6.0000000   6.0000000

  Atom        41          42          43          44          45          46          47          48          49          50
 IAtWgt=          12          12          12          12          12          12           1           1           1           1
 AtmWgt=  12.0000000  12.0000000  12.0000000  12.0000000  12.0000000  12.0000000   1.0078250   1.0078250   1.0078250   1.0078250
 NucSpn=           0           0           0           0           0           0           1           1           1           1
 AtZEff=   0.0000000   0.0000000   0.0000000   0.0000000   0.0000000   0.0000000   0.0000000   0.0000000   0.0000000   0.0000000
 NQMom=    0.0000000   0.0000000   0.0000000   0.0000000   0.0000000   0.0000000   0.0000000   0.0000000   0.0000000   0.0000000
 NMagM=    0.0000000   0.0000000   0.0000000   0.0000000   0.0000000   0.0000000   2.7928460   2.7928460   2.7928460   2.7928460
 AtZNuc=   6.0000000   6.0000000   6.0000000   6.0000000   6.0000000   6.0000000   1.0000000   1.0000000   1.0000000   1.0000000

  Atom        51          52          53          54          55          56          57          58          59          60
 IAtWgt=           1           1          12          12          12          12           1           1          12          12
 AtmWgt=   1.0078250   1.0078250  12.0000000  12.0000000  12.0000000  12.0000000   1.0078250   1.0078250  12.0000000  12.0000000
 NucSpn=           1           1           0           0           0           0           1           1           0           0
 AtZEff=   0.0000000   0.0000000   0.0000000   0.0000000   0.0000000   0.0000000   0.0000000   0.0000000   0.0000000   0.0000000
 NQMom=    0.0000000   0.0000000   0.0000000   0.0000000   0.0000000   0.0000000   0.0000000   0.0000000   0.0000000   0.0000000
 NMagM=    2.7928460   2.7928460   0.0000000   0.0000000   0.0000000   0.0000000   2.7928460   2.7928460   0.0000000   0.0000000
 AtZNuc=   1.0000000   1.0000000   6.0000000   6.0000000   6.0000000   6.0000000   1.0000000   1.0000000   6.0000000   6.0000000

  Atom        61          62          63          64          65          66          67          68          69          70
 IAtWgt=          12          12           1           1          12          12          12          12           1           1
 AtmWgt=  12.0000000  12.0000000   1.0078250   1.0078250  12.0000000  12.0000000  12.0000000  12.0000000   1.0078250   1.0078250
 NucSpn=           0           0           1           1           0           0           0           0           1           1
 AtZEff=   0.0000000   0.0000000   0.0000000   0.0000000   0.0000000   0.0000000   0.0000000   0.0000000   0.0000000   0.0000000
 NQMom=    0.0000000   0.0000000   0.0000000   0.0000000   0.0000000   0.0000000   0.0000000   0.0000000   0.0000000   0.0000000
 NMagM=    0.0000000   0.0000000   2.7928460   2.7928460   0.0000000   0.0000000   0.0000000   0.0000000   2.7928460   2.7928460
 AtZNuc=   6.0000000   6.0000000   1.0000000   1.0000000   6.0000000   6.0000000   6.0000000   6.0000000   1.0000000   1.0000000

  Atom        71          72
 IAtWgt=           1           1
 AtmWgt=   1.0078250   1.0078250
 NucSpn=           1           1
 AtZEff=   0.0000000   0.0000000
 NQMom=    0.0000000   0.0000000
 NMagM=    2.7928460   2.7928460
 AtZNuc=   1.0000000   1.0000000
 Leave Link  101 at Wed Sep 27 16:37:46 2023, MaxMem=  3221225472 cpu:               2.5 elap:               0.1
 (Enter /home/center/opt/aarch64/apps/gaussian16/c01/g16/l202.exe)
 Stoichiometry    C44H28
 Framework group  CS[SG(C4H4),X(C40H24)]
 Deg. of freedom   109
 Full point group                 CS      NOp   2
 Largest Abelian subgroup         CS      NOp   2
 Largest concise Abelian subgroup CS      NOp   2
                         Standard orientation:                         
 ---------------------------------------------------------------------
 Center     Atomic      Atomic             Coordinates (Angstroms)
 Number     Number       Type             X           Y           Z
 ---------------------------------------------------------------------
      1          6           0        0.815220   -2.386485    3.671276
      2          6           0       -0.638444   -2.386485    3.671276
      3          6           0        1.497122   -2.386485    4.933593
      4          6           0       -1.320345   -2.386485    4.933593
      5          6           0        0.804435   -2.386485    6.106357
      6          6           0       -0.627659   -2.386485    6.106357
      7          6           0        1.494779   -2.386485    2.463318
      8          6           0        0.815985   -2.386485    1.224029
      9          6           0       -1.318002   -2.386485    2.463317
     10          6           0       -0.639208   -2.386485    1.224029
     11          1           0        2.582150   -2.386485    4.933260
     12          1           0        2.580497   -2.386485    2.463929
     13          1           0       -2.403719   -2.386485    2.463929
     14          1           0       -2.405373   -2.386485    4.933260
     15          1           0       -1.156907   -2.386485    7.052528
     16          1           0        1.333683   -2.386485    7.052528
     17          6           0        1.495274   -2.386485    0.000000
     18          6           0        0.815985   -2.386485   -1.224029
     19          6           0       -1.318498   -2.386485    0.000000
     20          6           0       -0.639208   -2.386485   -1.224029
     21          1           0        2.580897   -2.386485    0.000000
     22          1           0       -2.404119   -2.386485    0.000000
     23          6           0        1.494779   -2.386485   -2.463318
     24          6           0        0.815220   -2.386485   -3.671276
     25          6           0       -1.318002   -2.386485   -2.463317
     26          6           0       -0.638444   -2.386485   -3.671276
     27          1           0        2.580497   -2.386485   -2.463929
     28          1           0       -2.403719   -2.386485   -2.463929
     29          6           0        1.497122   -2.386485   -4.933593
     30          6           0        0.804435   -2.386485   -6.106357
     31          6           0       -1.320345   -2.386485   -4.933593
     32          6           0       -0.627659   -2.386485   -6.106357
     33          1           0        2.582150   -2.386485   -4.933260
     34          1           0        1.333683   -2.386485   -7.052528
     35          1           0       -1.156907   -2.386485   -7.052528
     36          1           0       -2.405373   -2.386485   -4.933260
     37          6           0       -0.088388    3.113317    3.671276
     38          6           0       -0.088388    1.659653    3.671276
     39          6           0       -0.088388    3.795219    4.933593
     40          6           0       -0.088388    0.977752    4.933593
     41          6           0       -0.088388    3.102532    6.106357
     42          6           0       -0.088388    1.670438    6.106357
     43          6           0       -0.088388    3.792876    2.463318
     44          6           0       -0.088388    3.114082    1.224029
     45          6           0       -0.088388    0.980095    2.463317
     46          6           0       -0.088388    1.658889    1.224029
     47          1           0       -0.088388    4.880247    4.933260
     48          1           0       -0.088388    4.878594    2.463929
     49          1           0       -0.088388   -0.105622    2.463929
     50          1           0       -0.088388   -0.107276    4.933260
     51          1           0       -0.088388    1.141190    7.052528
     52          1           0       -0.088388    3.631780    7.052528
     53          6           0       -0.088388    3.793371    0.000000
     54          6           0       -0.088388    3.114082   -1.224029
     55          6           0       -0.088388    0.979600    0.000000
     56          6           0       -0.088388    1.658889   -1.224029
     57          1           0       -0.088388    4.878994    0.000000
     58          1           0       -0.088388   -0.106022    0.000000
     59          6           0       -0.088388    3.792876   -2.463318
     60          6           0       -0.088388    3.113317   -3.671276
     61          6           0       -0.088388    0.980095   -2.463317
     62          6           0       -0.088388    1.659653   -3.671276
     63          1           0       -0.088388    4.878594   -2.463929
     64          1           0       -0.088388   -0.105622   -2.463929
     65          6           0       -0.088388    3.795219   -4.933593
     66          6           0       -0.088388    3.102532   -6.106357
     67          6           0       -0.088388    0.977752   -4.933593
     68          6           0       -0.088388    1.670438   -6.106357
     69          1           0       -0.088388    4.880247   -4.933260
     70          1           0       -0.088388    3.631780   -7.052528
     71          1           0       -0.088388    1.141190   -7.052528
     72          1           0       -0.088388   -0.107276   -4.933260
 ---------------------------------------------------------------------
 Rotational constants (GHZ):           0.1283955           0.0563744           0.0416399
 Leave Link  202 at Wed Sep 27 16:37:48 2023, MaxMem=  3221225472 cpu:               0.6 elap:               0.0
 (Enter /home/center/opt/aarch64/apps/gaussian16/c01/g16/l122.exe)
 Counterpoise: doing full-system calculation.
 Leave Link  122 at Wed Sep 27 16:37:50 2023, MaxMem=  3221225472 cpu:               0.2 elap:               0.0
 (Enter /home/center/opt/aarch64/apps/gaussian16/c01/g16/l301.exe)
 Standard basis: 6-311G(d,p) (5D, 7F)
 Ernie: Thresh=  0.10000D-02 Tol=  0.10000D-05 Strict=F.
 There are   528 symmetry adapted cartesian basis functions of A'  symmetry.
 There are   476 symmetry adapted cartesian basis functions of A"  symmetry.
 There are   504 symmetry adapted basis functions of A'  symmetry.
 There are   456 symmetry adapted basis functions of A"  symmetry.
   960 basis functions,  1632 primitive gaussians,  1004 cartesian basis functions
   146 alpha electrons      146 beta electrons
       nuclear repulsion energy      4750.3161162357 Hartrees.
 IExCor=  402 DFT=T Ex+Corr=B3LYP ExCW=0 ScaHFX=  0.200000
 ScaDFX=  0.800000  0.720000  1.000000  0.810000 ScalE2=  1.000000  1.000000
 IRadAn=      5 IRanWt=     -1 IRanGd=            0 ICorTp=0 IEmpDi=131
 NAtoms=   72 NActive=   72 NUniq=   40 SFac= 3.24D+00 NAtFMM=   60 NAOKFM=T Big=F
 Integral buffers will be    131072 words long.
 Raffenetti 2 integral format.
 Two-electron integral symmetry is turned on.
 R6Disp:  Grimme-D3 Dispersion energy=       -0.0929807070 Hartrees.
 Nuclear repulsion after empirical dispersion term =     4750.2231355287 Hartrees.
 Leave Link  301 at Wed Sep 27 16:37:53 2023, MaxMem=  3221225472 cpu:               1.1 elap:               0.1
 (Enter /home/center/opt/aarch64/apps/gaussian16/c01/g16/l302.exe)
 NPDir=0 NMtPBC=     1 NCelOv=     1 NCel=       1 NClECP=     1 NCelD=      1
         NCelK=      1 NCelE2=     1 NClLst=     1 CellRange=     0.0.
 One-electron integrals computed using PRISM.
 One-electron integral symmetry used in STVInt
 NBasis=   960 RedAO= T EigKep=  3.72D-05  NBF=   504   456
 NBsUse=   960 1.00D-06 EigRej= -1.00D+00 NBFU=   504   456
 Precomputing XC quadrature grid using
 IXCGrd= 4 IRadAn=           5 IRanWt=          -1 IRanGd=           0 AccXCQ= 0.00D+00.
 Generated NRdTot=       0 NPtTot=           0 NUsed=           0 NTot=          32
 NSgBfM=   991   991   991   991   991 MxSgAt=    72 MxSgA2=    72.
 Leave Link  302 at Wed Sep 27 16:37:57 2023, MaxMem=  3221225472 cpu:              65.0 elap:               2.0
 (Enter /home/center/opt/aarch64/apps/gaussian16/c01/g16/l303.exe)
 DipDrv:  MaxL=1.
 Leave Link  303 at Wed Sep 27 16:38:00 2023, MaxMem=  3221225472 cpu:              13.8 elap:               0.4
 (Enter /home/center/opt/aarch64/apps/gaussian16/c01/g16/l401.exe)
 ExpMin= 1.03D-01 ExpMax= 4.56D+03 ExpMxC= 6.82D+02 IAcc=3 IRadAn=         5 AccDes= 0.00D+00
 Harris functional with IExCor=  402 and IRadAn=       5 diagonalized for initial guess.
 HarFok:  IExCor=  402 AccDes= 0.00D+00 IRadAn=         5 IDoV= 1 UseB2=F ITyADJ=14
 ICtDFT=  3500011 ScaDFX=  1.000000  1.000000  1.000000  1.000000
 FoFCou: FMM=F IPFlag=           0 FMFlag=      100000 FMFlg1=        2000
         NFxFlg=           0 DoJE=T BraDBF=F KetDBF=T FulRan=T
         wScrn=  0.000000 ICntrl=       500 IOpCl=  0 I1Cent=   200000004 NGrid=           0
         NMat0=    1 NMatS0=      1 NMatT0=    0 NMatD0=    1 NMtDS0=    0 NMtDT0=    0
 Petite list used in FoFCou.
 Harris En= -1694.13235980370    
 JPrj=0 DoOrth=F DoCkMO=F.
 Initial guess orbital symmetries:
       Occupied  (A") (A') (A") (A') (A") (A') (A") (A') (A") (A')
                 (A") (A') (A") (A') (A") (A') (A") (A') (A") (A')
                 (A') (A") (A') (A') (A") (A') (A') (A') (A") (A')
                 (A") (A') (A") (A') (A") (A') (A") (A') (A") (A')
                 (A") (A') (A') (A") (A') (A') (A") (A") (A') (A')
                 (A") (A") (A') (A') (A') (A') (A") (A") (A') (A')
                 (A") (A") (A") (A") (A') (A') (A') (A') (A") (A")
                 (A") (A") (A') (A') (A") (A") (A') (A') (A') (A')
                 (A') (A') (A") (A") (A") (A") (A') (A") (A") (A')
                 (A') (A') (A") (A") (A') (A') (A') (A') (A") (A")
                 (A') (A') (A") (A") (A") (A") (A') (A') (A') (A')
                 (A") (A") (A') (A') (A") (A") (A') (A") (A') (A")
                 (A') (A") (A") (A') (A') (A') (A") (A") (A') (A')
                 (A") (A") (A') (A') (A") (A") (A') (A') (A') (A')
                 (A") (A") (A") (A") (A') (A')
       Virtual   (A') (A') (A") (A") (A") (A") (A') (A') (A') (A')
                 (A") (A") (A') (A') (A") (A") (A') (A") (A') (A')
                 (A') (A') (A") (A') (A") (A') (A") (A") (A') (A')
                 (A") (A') (A") (A") (A") (A') (A') (A") (A') (A")
                 (A') (A') (A') (A") (A") (A') (A") (A') (A') (A')
                 (A') (A") (A') (A") (A') (A') (A") (A") (A') (A')
                 (A") (A") (A") (A") (A') (A') (A") (A') (A") (A")
                 (A') (A") (A') (A') (A") (A') (A") (A") (A') (A')
                 (A") (A') (A') (A") (A") (A') (A") (A') (A') (A')
                 (A") (A') (A') (A") (A") (A") (A') (A") (A") (A')
                 (A') (A') (A') (A") (A") (A') (A') (A") (A") (A')
                 (A') (A') (A") (A") (A') (A') (A") (A') (A") (A')
                 (A") (A') (A") (A") (A') (A") (A') (A') (A') (A")
                 (A") (A') (A") (A') (A") (A") (A') (A') (A") (A')
                 (A') (A") (A") (A") (A') (A') (A') (A") (A') (A')
                 (A') (A") (A') (A") (A") (A') (A") (A") (A") (A')
                 (A') (A") (A') (A") (A') (A') (A") (A') (A') (A")
                 (A') (A") (A') (A') (A") (A') (A') (A") (A") (A")
                 (A') (A") (A') (A") (A') (A") (A') (A') (A") (A')
                 (A') (A") (A') (A') (A") (A") (A") (A') (A') (A")
                 (A") (A') (A") (A') (A') (A') (A") (A") (A") (A')
                 (A') (A') (A") (A') (A") (A") (A") (A') (A') (A")
                 (A") (A") (A') (A') (A") (A') (A') (A') (A') (A")
                 (A") (A') (A') (A') (A") (A') (A") (A") (A') (A")
                 (A') (A") (A") (A') (A') (A") (A') (A") (A") (A')
                 (A') (A') (A") (A") (A") (A") (A') (A') (A') (A")
                 (A') (A") (A') (A") (A") (A') (A") (A') (A") (A')
                 (A") (A") (A') (A') (A") (A') (A") (A") (A') (A')
                 (A') (A") (A") (A') (A") (A') (A") (A') (A') (A")
                 (A') (A") (A') (A") (A") (A') (A") (A') (A") (A')
                 (A") (A') (A') (A") (A') (A") (A") (A') (A') (A")
                 (A") (A") (A') (A') (A') (A') (A") (A') (A") (A')
                 (A") (A') (A') (A") (A") (A') (A") (A") (A') (A")
                 (A") (A') (A") (A') (A") (A') (A') (A") (A') (A')
                 (A") (A') (A") (A') (A') (A") (A') (A') (A") (A")
                 (A") (A') (A') (A') (A') (A") (A') (A') (A") (A")
                 (A') (A') (A") (A") (A') (A") (A") (A') (A") (A')
                 (A") (A") (A') (A") (A') (A') (A") (A") (A") (A')
                 (A') (A') (A") (A') (A') (A") (A') (A') (A") (A')
                 (A") (A') (A') (A") (A") (A') (A") (A') (A') (A")
                 (A") (A") (A') (A') (A") (A') (A") (A") (A') (A')
                 (A') (A') (A') (A") (A') (A') (A') (A") (A") (A")
                 (A') (A") (A') (A") (A') (A") (A') (A") (A') (A")
                 (A') (A") (A') (A") (A') (A") (A') (A") (A") (A')
                 (A") (A") (A') (A") (A') (A") (A') (A") (A') (A')
                 (A') (A") (A') (A") (A") (A") (A') (A") (A') (A')
                 (A") (A') (A") (A") (A') (A') (A") (A') (A') (A")
                 (A') (A") (A') (A") (A') (A") (A') (A") (A") (A')
                 (A') (A") (A') (A') (A") (A") (A") (A") (A') (A")
                 (A") (A") (A') (A") (A') (A") (A') (A') (A') (A")
                 (A') (A") (A") (A') (A') (A") (A') (A') (A") (A')
                 (A") (A') (A") (A') (A") (A") (A') (A') (A") (A")
                 (A') (A') (A") (A") (A') (A') (A") (A') (A") (A')
                 (A') (A") (A") (A') (A") (A') (A") (A') (A") (A')
                 (A") (A") (A') (A') (A') (A") (A") (A") (A') (A")
                 (A") (A') (A') (A") (A') (A") (A') (A") (A') (A')
                 (A") (A') (A') (A") (A") (A') (A") (A') (A") (A")
                 (A') (A") (A') (A') (A") (A") (A') (A') (A") (A")
                 (A') (A') (A') (A') (A') (A") (A') (A') (A") (A')
                 (A") (A') (A") (A') (A") (A") (A") (A') (A") (A')
                 (A") (A') (A") (A') (A') (A") (A') (A") (A') (A')
                 (A") (A') (A') (A") (A') (A') (A") (A") (A') (A")
                 (A") (A") (A') (A') (A') (A") (A") (A') (A") (A')
                 (A') (A") (A') (A") (A') (A") (A') (A') (A") (A')
                 (A") (A') (A") (A") (A') (A") (A') (A") (A') (A")
                 (A') (A') (A') (A') (A") (A") (A') (A') (A') (A")
                 (A") (A") (A") (A') (A') (A") (A') (A') (A") (A')
                 (A") (A') (A') (A") (A") (A') (A") (A") (A') (A')
                 (A") (A') (A') (A") (A') (A") (A") (A') (A") (A")
                 (A') (A") (A') (A') (A") (A') (A") (A') (A') (A")
                 (A') (A") (A") (A') (A") (A') (A") (A') (A") (A')
                 (A") (A") (A') (A") (A') (A') (A') (A') (A") (A")
                 (A') (A") (A') (A") (A') (A") (A') (A') (A") (A')
                 (A') (A") (A') (A") (A') (A") (A") (A') (A') (A")
                 (A') (A") (A') (A") (A') (A') (A") (A') (A') (A")
                 (A') (A') (A") (A") (A') (A") (A') (A') (A") (A")
                 (A") (A') (A") (A') (A") (A") (A') (A") (A') (A")
                 (A') (A') (A") (A") (A') (A') (A') (A') (A") (A")
                 (A") (A') (A') (A") (A") (A') (A") (A') (A') (A')
                 (A") (A") (A") (A") (A') (A') (A') (A") (A') (A")
                 (A') (A') (A") (A") (A') (A') (A") (A') (A") (A')
                 (A') (A") (A') (A")
 The electronic state of the initial guess is 1-A'.
 Leave Link  401 at Wed Sep 27 16:38:05 2023, MaxMem=  3221225472 cpu:             107.0 elap:               2.7
 (Enter /home/center/opt/aarch64/apps/gaussian16/c01/g16/l502.exe)
 Integral symmetry usage will be decided dynamically.
 Closed shell SCF:
 Using DIIS extrapolation, IDIIS=  1040.
 NGot=  3221225472 LenX=  3219153746 LenY=  3218144726
 Requested convergence on RMS density matrix=1.00D-08 within 128 cycles.
 Requested convergence on MAX density matrix=1.00D-06.
 Requested convergence on             energy=1.00D-06.
 No special actions if energy rises.
 Fock matrices will be formed incrementally for  20 cycles.
 Integral accuracy reduced to 1.0D-05 until final iterations.

 Cycle   1  Pass 0  IDiag  1:
 FoFJK:  IHMeth= 1 ICntrl=       0 DoSepK=F KAlg= 0 I1Cent=           0 FoldK=F
 IRaf= 570000000 NMat=       1 IRICut=       1 DoRegI=T DoRafI=F ISym2E= 1 IDoP0=0 IntGTp=1.
 FoFCou: FMM=F IPFlag=           0 FMFlag=      100000 FMFlg1=        2000
         NFxFlg=           0 DoJE=F BraDBF=F KetDBF=F FulRan=T
         wScrn=  0.000000 ICntrl=         0 IOpCl=  0 I1Cent=           0 NGrid=           0
         NMat0=    1 NMatS0=      1 NMatT0=    0 NMatD0=    1 NMtDS0=    0 NMtDT0=    0
 Petite list used in FoFCou.
 E= -1693.18368541295    
 DIIS: error= 4.61D-02 at cycle   1 NSaved=   1.
 NSaved= 1 IEnMin= 1 EnMin= -1693.18368541295     IErMin= 1 ErrMin= 4.61D-02
 ErrMax= 4.61D-02  0.00D+00 EMaxC= 1.00D-01 BMatC= 8.91D-01 BMatP= 8.91D-01
 IDIUse=3 WtCom= 5.39D-01 WtEn= 4.61D-01
 Coeff-Com:  0.100D+01
 Coeff-En:   0.100D+01
 Coeff:      0.100D+01
 Gap=     0.056 Goal=   None    Shift=    0.000
 GapD=    0.056 DampG=0.500 DampE=0.500 DampFc=0.2500 IDamp=-1.
 Damping current iteration by 2.50D-01
 RMSDP=1.74D-03 MaxDP=8.39D-02              OVMax= 1.53D-01

 Cycle   2  Pass 0  IDiag  1:
 RMSU=  4.21D-04    CP:  9.82D-01
 E= -1693.48828378751     Delta-E=       -0.304598374565 Rises=F Damp=T
 DIIS: error= 2.71D-02 at cycle   2 NSaved=   2.
 NSaved= 2 IEnMin= 2 EnMin= -1693.48828378751     IErMin= 2 ErrMin= 2.71D-02
 ErrMax= 2.71D-02  0.00D+00 EMaxC= 1.00D-01 BMatC= 2.99D-01 BMatP= 8.91D-01
 IDIUse=3 WtCom= 7.29D-01 WtEn= 2.71D-01
 Coeff-Com: -0.122D+01 0.222D+01
 Coeff-En:   0.000D+00 0.100D+01
 Coeff:     -0.893D+00 0.189D+01
 Gap=     0.055 Goal=   None    Shift=    0.000
 RMSDP=7.05D-04 MaxDP=3.44D-02 DE=-3.05D-01 OVMax= 1.29D-01

 Cycle   3  Pass 0  IDiag  1:
 RMSU=  4.32D-04    CP:  9.56D-01  2.26D+00
 E= -1694.04509378839     Delta-E=       -0.556810000875 Rises=F Damp=F
 DIIS: error= 5.83D-03 at cycle   3 NSaved=   3.
 NSaved= 3 IEnMin= 3 EnMin= -1694.04509378839     IErMin= 3 ErrMin= 5.83D-03
 ErrMax= 5.83D-03  0.00D+00 EMaxC= 1.00D-01 BMatC= 1.31D-02 BMatP= 2.99D-01
 IDIUse=3 WtCom= 9.42D-01 WtEn= 5.83D-02
 Coeff-Com: -0.268D+00 0.548D+00 0.720D+00
 Coeff-En:   0.000D+00 0.000D+00 0.100D+01
 Coeff:     -0.252D+00 0.516D+00 0.736D+00
 Gap=     0.063 Goal=   None    Shift=    0.000
 RMSDP=2.80D-04 MaxDP=1.82D-02 DE=-5.57D-01 OVMax= 1.54D-01

 Cycle   4  Pass 0  IDiag  1:
 RMSU=  2.38D-04    CP:  9.57D-01  2.17D+00  6.72D-01
 E= -1694.03592503523     Delta-E=        0.009168753161 Rises=F Damp=F
 DIIS: error= 1.02D-02 at cycle   4 NSaved=   4.
 NSaved= 4 IEnMin= 3 EnMin= -1694.04509378839     IErMin= 3 ErrMin= 5.83D-03
 ErrMax= 1.02D-02  0.00D+00 EMaxC= 1.00D-01 BMatC= 1.92D-02 BMatP= 1.31D-02
 IDIUse=2 WtCom= 0.00D+00 WtEn= 1.00D+00
 Coeff-En:   0.000D+00 0.000D+00 0.597D+00 0.403D+00
 Coeff:      0.000D+00 0.000D+00 0.597D+00 0.403D+00
 Gap=     0.058 Goal=   None    Shift=    0.000
 RMSDP=1.68D-04 MaxDP=1.23D-02 DE= 9.17D-03 OVMax= 1.19D-01

 Cycle   5  Pass 0  IDiag  1:
 RMSU=  7.99D-05    CP:  9.57D-01  2.15D+00  7.84D-01  4.15D-01
 E= -1694.05831947061     Delta-E=       -0.022394435379 Rises=F Damp=F
 DIIS: error= 2.18D-03 at cycle   5 NSaved=   5.
 NSaved= 5 IEnMin= 5 EnMin= -1694.05831947061     IErMin= 5 ErrMin= 2.18D-03
 ErrMax= 2.18D-03  0.00D+00 EMaxC= 1.00D-01 BMatC= 1.15D-03 BMatP= 1.31D-02
 IDIUse=3 WtCom= 9.78D-01 WtEn= 2.18D-02
 Coeff-Com: -0.176D-01 0.380D-01 0.272D+00 0.215D+00 0.493D+00
 Coeff-En:   0.000D+00 0.000D+00 0.000D+00 0.000D+00 0.100D+01
 Coeff:     -0.172D-01 0.372D-01 0.266D+00 0.210D+00 0.504D+00
 Gap=     0.059 Goal=   None    Shift=    0.000
 RMSDP=5.00D-05 MaxDP=3.90D-03 DE=-2.24D-02 OVMax= 3.09D-02

 Cycle   6  Pass 0  IDiag  1:
 RMSU=  3.23D-05    CP:  9.56D-01  2.18D+00  7.94D-01  4.68D-01  5.87D-01
 E= -1694.05912537131     Delta-E=       -0.000805900700 Rises=F Damp=F
 DIIS: error= 1.23D-03 at cycle   6 NSaved=   6.
 NSaved= 6 IEnMin= 6 EnMin= -1694.05912537131     IErMin= 6 ErrMin= 1.23D-03
 ErrMax= 1.23D-03  0.00D+00 EMaxC= 1.00D-01 BMatC= 3.52D-04 BMatP= 1.15D-03
 IDIUse=3 WtCom= 9.88D-01 WtEn= 1.23D-02
 Coeff-Com: -0.775D-02 0.117D-01 0.117D+00 0.988D-01 0.380D+00 0.400D+00
 Coeff-En:   0.000D+00 0.000D+00 0.000D+00 0.000D+00 0.281D+00 0.719D+00
 Coeff:     -0.766D-02 0.115D-01 0.116D+00 0.976D-01 0.379D+00 0.404D+00
 Gap=     0.058 Goal=   None    Shift=    0.000
 RMSDP=2.52D-05 MaxDP=1.68D-03 DE=-8.06D-04 OVMax= 1.25D-02

 Cycle   7  Pass 0  IDiag  1:
 RMSU=  8.89D-06    CP:  9.56D-01  2.18D+00  7.99D-01  4.49D-01  6.47D-01
                    CP:  3.03D-01
 E= -1694.05954551426     Delta-E=       -0.000420142958 Rises=F Damp=F
 DIIS: error= 3.43D-04 at cycle   7 NSaved=   7.
 NSaved= 7 IEnMin= 7 EnMin= -1694.05954551426     IErMin= 7 ErrMin= 3.43D-04
 ErrMax= 3.43D-04  0.00D+00 EMaxC= 1.00D-01 BMatC= 1.98D-05 BMatP= 3.52D-04
 IDIUse=3 WtCom= 9.97D-01 WtEn= 3.43D-03
 Coeff-Com: -0.277D-02 0.332D-02 0.566D-01 0.479D-01 0.207D+00 0.265D+00
 Coeff-Com:  0.423D+00
 Coeff-En:   0.000D+00 0.000D+00 0.000D+00 0.000D+00 0.000D+00 0.000D+00
 Coeff-En:   0.100D+01
 Coeff:     -0.276D-02 0.331D-02 0.564D-01 0.477D-01 0.207D+00 0.264D+00
 Coeff:      0.425D+00
 Gap=     0.058 Goal=   None    Shift=    0.000
 RMSDP=5.67D-06 MaxDP=2.38D-04 DE=-4.20D-04 OVMax= 1.45D-03

 Initial convergence to 1.0D-05 achieved.  Increase integral accuracy.
 Cycle   8  Pass 1  IDiag  1:
 E= -1694.05930973669     Delta-E=        0.000235777572 Rises=F Damp=F
 DIIS: error= 8.97D-04 at cycle   1 NSaved=   1.
 NSaved= 1 IEnMin= 1 EnMin= -1694.05930973669     IErMin= 1 ErrMin= 8.97D-04
 ErrMax= 8.97D-04  0.00D+00 EMaxC= 1.00D-01 BMatC= 4.30D-05 BMatP= 4.30D-05
 IDIUse=3 WtCom= 9.91D-01 WtEn= 8.97D-03
 Coeff-Com:  0.100D+01
 Coeff-En:   0.100D+01
 Coeff:      0.100D+01
 Gap=     0.058 Goal=   None    Shift=    0.000
 RMSDP=5.67D-06 MaxDP=2.38D-04 DE= 2.36D-04 OVMax= 1.38D-03

 Cycle   9  Pass 1  IDiag  1:
 RMSU=  2.87D-04    CP:  1.00D+00
 E= -1694.05934654435     Delta-E=       -0.000036807653 Rises=F Damp=F
 DIIS: error= 8.97D-05 at cycle   2 NSaved=   2.
 NSaved= 2 IEnMin= 2 EnMin= -1694.05934654435     IErMin= 2 ErrMin= 8.97D-05
 ErrMax= 8.97D-05  0.00D+00 EMaxC= 1.00D-01 BMatC= 2.57D-06 BMatP= 4.30D-05
 IDIUse=1 WtCom= 1.00D+00 WtEn= 0.00D+00
 Coeff-Com:  0.749D-01 0.925D+00
 Coeff:      0.749D-01 0.925D+00
 Gap=     0.058 Goal=   None    Shift=    0.000
 RMSDP=5.49D-06 MaxDP=2.86D-04 DE=-3.68D-05 OVMax= 1.93D-03

 Cycle  10  Pass 1  IDiag  1:
 RMSU=  5.00D-06    CP:  1.00D+00  1.01D+00
 E= -1694.05933769321     Delta-E=        0.000008851136 Rises=F Damp=F
 DIIS: error= 1.82D-04 at cycle   3 NSaved=   3.
 NSaved= 3 IEnMin= 2 EnMin= -1694.05934654435     IErMin= 2 ErrMin= 8.97D-05
 ErrMax= 1.82D-04  0.00D+00 EMaxC= 1.00D-01 BMatC= 9.89D-06 BMatP= 2.57D-06
 IDIUse=3 WtCom= 4.26D-01 WtEn= 5.74D-01
 Coeff-Com: -0.113D-02 0.666D+00 0.335D+00
 Coeff-En:   0.000D+00 0.749D+00 0.251D+00
 Coeff:     -0.480D-03 0.714D+00 0.287D+00
 Gap=     0.058 Goal=   None    Shift=    0.000
 RMSDP=3.33D-06 MaxDP=1.84D-04 DE= 8.85D-06 OVMax= 1.47D-03

 Cycle  11  Pass 1  IDiag  1:
 RMSU=  1.08D-06    CP:  1.00D+00  1.01D+00  3.81D-01
 E= -1694.05934897972     Delta-E=       -0.000011286506 Rises=F Damp=F
 DIIS: error= 2.74D-05 at cycle   4 NSaved=   4.
 NSaved= 4 IEnMin= 4 EnMin= -1694.05934897972     IErMin= 4 ErrMin= 2.74D-05
 ErrMax= 2.74D-05  0.00D+00 EMaxC= 1.00D-01 BMatC= 3.73D-07 BMatP= 2.57D-06
 IDIUse=1 WtCom= 1.00D+00 WtEn= 0.00D+00
 Coeff-Com: -0.360D-02 0.448D+00 0.186D+00 0.370D+00
 Coeff:     -0.360D-02 0.448D+00 0.186D+00 0.370D+00
 Gap=     0.058 Goal=   None    Shift=    0.000
 RMSDP=6.06D-07 MaxDP=3.01D-05 DE=-1.13D-05 OVMax= 1.56D-04

 Cycle  12  Pass 1  IDiag  1:
 RMSU=  3.74D-07    CP:  1.00D+00  1.01D+00  3.32D-01  6.28D-01
 E= -1694.05934934529     Delta-E=       -0.000000365570 Rises=F Damp=F
 DIIS: error= 6.54D-06 at cycle   5 NSaved=   5.
 NSaved= 5 IEnMin= 5 EnMin= -1694.05934934529     IErMin= 5 ErrMin= 6.54D-06
 ErrMax= 6.54D-06  0.00D+00 EMaxC= 1.00D-01 BMatC= 5.21D-09 BMatP= 3.73D-07
 IDIUse=1 WtCom= 1.00D+00 WtEn= 0.00D+00
 Coeff-Com: -0.223D-02 0.266D+00 0.110D+00 0.229D+00 0.398D+00
 Coeff:     -0.223D-02 0.266D+00 0.110D+00 0.229D+00 0.398D+00
 Gap=     0.058 Goal=   None    Shift=    0.000
 RMSDP=9.79D-08 MaxDP=5.48D-06 DE=-3.66D-07 OVMax= 4.76D-05

 Cycle  13  Pass 1  IDiag  1:
 RMSU=  8.81D-08    CP:  1.00D+00  1.01D+00  3.33D-01  6.41D-01  8.95D-01
 E= -1694.05934935125     Delta-E=       -0.000000005964 Rises=F Damp=F
 DIIS: error= 1.91D-06 at cycle   6 NSaved=   6.
 NSaved= 6 IEnMin= 6 EnMin= -1694.05934935125     IErMin= 6 ErrMin= 1.91D-06
 ErrMax= 1.91D-06  0.00D+00 EMaxC= 1.00D-01 BMatC= 5.57D-10 BMatP= 5.21D-09
 IDIUse=1 WtCom= 1.00D+00 WtEn= 0.00D+00
 Coeff-Com: -0.804D-03 0.921D-01 0.385D-01 0.805D-01 0.252D+00 0.538D+00
 Coeff:     -0.804D-03 0.921D-01 0.385D-01 0.805D-01 0.252D+00 0.538D+00
 Gap=     0.058 Goal=   None    Shift=    0.000
 RMSDP=3.06D-08 MaxDP=2.03D-06 DE=-5.96D-09 OVMax= 1.75D-05

 Cycle  14  Pass 1  IDiag  1:
 RMSU=  1.99D-08    CP:  1.00D+00  1.01D+00  3.34D-01  6.34D-01  9.28D-01
                    CP:  8.05D-01
 E= -1694.05934935188     Delta-E=       -0.000000000635 Rises=F Damp=F
 DIIS: error= 3.88D-07 at cycle   7 NSaved=   7.
 NSaved= 7 IEnMin= 7 EnMin= -1694.05934935188     IErMin= 7 ErrMin= 3.88D-07
 ErrMax= 3.88D-07  0.00D+00 EMaxC= 1.00D-01 BMatC= 4.07D-11 BMatP= 5.57D-10
 IDIUse=1 WtCom= 1.00D+00 WtEn= 0.00D+00
 Coeff-Com: -0.246D-03 0.274D-01 0.112D-01 0.252D-01 0.966D-01 0.287D+00
 Coeff-Com:  0.553D+00
 Coeff:     -0.246D-03 0.274D-01 0.112D-01 0.252D-01 0.966D-01 0.287D+00
 Coeff:      0.553D+00
 Gap=     0.058 Goal=   None    Shift=    0.000
 RMSDP=1.03D-08 MaxDP=4.25D-07 DE=-6.35D-10 OVMax= 4.17D-06

 Cycle  15  Pass 1  IDiag  1:
 RMSU=  8.37D-09    CP:  1.00D+00  1.01D+00  3.34D-01  6.36D-01  9.29D-01
                    CP:  8.32D-01  7.60D-01
 E= -1694.05934935191     Delta-E=       -0.000000000027 Rises=F Damp=F
 DIIS: error= 2.06D-07 at cycle   8 NSaved=   8.
 NSaved= 8 IEnMin= 8 EnMin= -1694.05934935191     IErMin= 8 ErrMin= 2.06D-07
 ErrMax= 2.06D-07  0.00D+00 EMaxC= 1.00D-01 BMatC= 1.49D-11 BMatP= 4.07D-11
 IDIUse=1 WtCom= 1.00D+00 WtEn= 0.00D+00
 Coeff-Com:  0.337D-04-0.444D-02-0.221D-02-0.227D-02 0.358D-02 0.782D-01
 Coeff-Com:  0.399D+00 0.528D+00
 Coeff:      0.337D-04-0.444D-02-0.221D-02-0.227D-02 0.358D-02 0.782D-01
 Coeff:      0.399D+00 0.528D+00
 Gap=     0.058 Goal=   None    Shift=    0.000
 RMSDP=5.62D-09 MaxDP=2.68D-07 DE=-2.73D-11 OVMax= 2.77D-06

 SCF Done:  E(RB3LYP) =  -1694.05934935     A.U. after   15 cycles
            NFock= 15  Conv=0.56D-08     -V/T= 2.0043
 KE= 1.686765654048D+03 PE=-1.343109363497D+04 EE= 5.300045496045D+03
 Leave Link  502 at Wed Sep 27 16:39:59 2023, MaxMem=  3221225472 cpu:            4091.6 elap:             112.2
 (Enter /home/center/opt/aarch64/apps/gaussian16/c01/g16/l601.exe)
 Copying SCF densities to generalized density rwf, IOpCl= 0 IROHF=0.

 **********************************************************************

            Population analysis using the SCF Density.

 **********************************************************************

 Orbital symmetries:
       Occupied  (A') (A") (A') (A") (A") (A') (A') (A") (A') (A')
                 (A") (A') (A") (A') (A") (A') (A") (A') (A') (A")
                 (A") (A') (A") (A') (A") (A') (A') (A") (A') (A")
                 (A") (A') (A") (A') (A') (A") (A') (A") (A') (A')
                 (A") (A') (A") (A') (A') (A") (A') (A") (A') (A')
                 (A") (A") (A') (A') (A") (A') (A') (A") (A') (A")
                 (A') (A") (A") (A") (A') (A') (A') (A') (A") (A")
                 (A') (A") (A") (A") (A') (A') (A") (A') (A') (A')
                 (A') (A") (A") (A') (A") (A") (A') (A") (A') (A')
                 (A") (A') (A") (A") (A') (A') (A") (A') (A") (A')
                 (A") (A') (A') (A') (A') (A") (A") (A') (A") (A')
                 (A') (A') (A") (A") (A") (A") (A") (A') (A") (A')
                 (A') (A') (A') (A") (A") (A') (A') (A") (A") (A')
                 (A") (A") (A') (A") (A') (A') (A") (A') (A') (A")
                 (A') (A") (A") (A") (A') (A')
       Virtual   (A') (A') (A") (A") (A") (A") (A') (A') (A') (A")
                 (A') (A') (A") (A') (A') (A") (A') (A') (A") (A")
                 (A') (A') (A") (A") (A') (A") (A') (A") (A") (A')
                 (A") (A') (A") (A') (A') (A') (A") (A") (A') (A")
                 (A') (A') (A') (A") (A") (A') (A") (A') (A") (A")
                 (A') (A') (A') (A') (A') (A') (A") (A') (A") (A")
                 (A') (A") (A") (A') (A") (A") (A') (A") (A') (A")
                 (A') (A') (A") (A') (A') (A") (A") (A') (A') (A")
                 (A") (A') (A') (A") (A') (A') (A") (A') (A') (A")
                 (A") (A') (A") (A') (A') (A") (A') (A") (A') (A')
                 (A") (A') (A") (A') (A") (A") (A") (A') (A") (A")
                 (A') (A') (A") (A') (A") (A') (A') (A') (A") (A")
                 (A') (A') (A") (A') (A") (A') (A') (A') (A") (A")
                 (A') (A') (A") (A') (A') (A') (A") (A") (A") (A')
                 (A') (A") (A') (A") (A") (A') (A') (A") (A") (A')
                 (A') (A") (A") (A") (A') (A") (A') (A') (A') (A')
                 (A") (A") (A') (A") (A") (A') (A') (A') (A") (A")
                 (A') (A') (A') (A") (A') (A") (A") (A') (A") (A")
                 (A") (A') (A') (A') (A") (A') (A") (A") (A") (A')
                 (A') (A') (A") (A') (A") (A') (A") (A") (A') (A')
                 (A') (A") (A') (A") (A') (A') (A") (A') (A") (A")
                 (A') (A') (A") (A") (A') (A') (A") (A") (A') (A")
                 (A") (A') (A") (A') (A') (A') (A") (A") (A') (A')
                 (A") (A') (A") (A') (A') (A") (A') (A") (A') (A")
                 (A") (A') (A') (A') (A") (A") (A") (A') (A') (A')
                 (A") (A') (A") (A") (A") (A') (A") (A') (A') (A")
                 (A') (A") (A') (A") (A") (A') (A') (A') (A") (A")
                 (A") (A') (A") (A') (A") (A') (A") (A') (A") (A')
                 (A") (A') (A') (A") (A') (A") (A') (A") (A') (A")
                 (A') (A') (A") (A") (A') (A') (A") (A') (A") (A')
                 (A") (A") (A") (A') (A') (A') (A") (A") (A') (A')
                 (A") (A') (A") (A') (A") (A") (A') (A") (A') (A')
                 (A") (A') (A') (A") (A") (A") (A') (A") (A') (A")
                 (A') (A") (A") (A') (A') (A") (A') (A') (A") (A")
                 (A') (A') (A') (A") (A') (A") (A') (A') (A") (A")
                 (A') (A') (A") (A') (A') (A") (A') (A") (A') (A")
                 (A') (A") (A') (A') (A") (A') (A') (A") (A") (A")
                 (A") (A') (A") (A") (A') (A') (A") (A") (A") (A')
                 (A') (A") (A') (A') (A') (A') (A") (A") (A') (A')
                 (A") (A') (A") (A') (A") (A') (A") (A') (A") (A')
                 (A") (A") (A') (A') (A") (A") (A') (A') (A") (A')
                 (A') (A') (A') (A") (A') (A') (A") (A') (A") (A")
                 (A') (A") (A') (A") (A") (A') (A') (A") (A") (A')
                 (A") (A') (A') (A') (A") (A") (A") (A") (A') (A')
                 (A') (A") (A") (A") (A') (A") (A") (A') (A') (A')
                 (A") (A') (A") (A') (A") (A') (A") (A") (A') (A')
                 (A") (A') (A") (A') (A") (A') (A') (A') (A") (A")
                 (A') (A") (A") (A') (A') (A") (A') (A") (A") (A')
                 (A') (A') (A") (A') (A") (A") (A") (A") (A") (A')
                 (A") (A") (A') (A") (A') (A') (A") (A') (A') (A")
                 (A") (A') (A') (A") (A") (A') (A') (A") (A') (A')
                 (A") (A") (A') (A') (A") (A') (A') (A") (A") (A')
                 (A") (A") (A') (A') (A") (A') (A") (A") (A') (A")
                 (A") (A') (A') (A') (A") (A") (A") (A') (A') (A')
                 (A') (A") (A") (A') (A") (A') (A") (A") (A') (A")
                 (A") (A') (A") (A') (A") (A') (A') (A") (A') (A')
                 (A") (A') (A') (A") (A") (A") (A') (A") (A') (A')
                 (A") (A') (A') (A') (A") (A') (A") (A') (A') (A")
                 (A") (A") (A') (A') (A") (A") (A') (A') (A") (A")
                 (A") (A') (A') (A") (A') (A") (A') (A') (A") (A')
                 (A') (A') (A") (A') (A") (A') (A") (A') (A') (A")
                 (A") (A") (A") (A') (A') (A') (A") (A') (A') (A')
                 (A") (A') (A") (A') (A') (A") (A') (A") (A') (A")
                 (A") (A") (A') (A") (A') (A") (A") (A') (A') (A')
                 (A") (A') (A') (A") (A') (A") (A') (A") (A') (A")
                 (A') (A") (A') (A') (A") (A") (A') (A") (A') (A')
                 (A") (A') (A") (A") (A') (A') (A") (A') (A") (A')
                 (A') (A") (A') (A") (A") (A') (A") (A") (A') (A')
                 (A') (A') (A") (A") (A') (A") (A") (A') (A") (A")
                 (A') (A") (A') (A") (A') (A') (A') (A') (A") (A")
                 (A") (A') (A") (A') (A") (A') (A') (A") (A") (A')
                 (A") (A") (A') (A") (A') (A') (A') (A") (A') (A")
                 (A') (A") (A') (A') (A") (A') (A") (A') (A") (A')
                 (A') (A") (A') (A") (A') (A") (A') (A") (A") (A')
                 (A') (A") (A') (A") (A') (A') (A") (A') (A') (A")
                 (A') (A') (A") (A") (A') (A") (A') (A') (A") (A")
                 (A") (A') (A") (A") (A') (A') (A") (A") (A') (A")
                 (A') (A') (A") (A") (A') (A') (A') (A') (A") (A")
                 (A") (A') (A") (A") (A') (A') (A') (A") (A') (A")
                 (A') (A") (A") (A") (A') (A') (A") (A') (A') (A')
                 (A") (A") (A') (A') (A") (A') (A") (A') (A") (A')
                 (A') (A") (A') (A")
 The electronic state is 1-A'.
 Alpha  occ. eigenvalues --  -10.19911 -10.19911 -10.19875 -10.19874 -10.19779
 Alpha  occ. eigenvalues --  -10.19779 -10.19742 -10.19742 -10.18953 -10.18944
 Alpha  occ. eigenvalues --  -10.18880 -10.18880 -10.18875 -10.18875 -10.18694
 Alpha  occ. eigenvalues --  -10.18694 -10.18684 -10.18684 -10.18622 -10.18622
 Alpha  occ. eigenvalues --  -10.18588 -10.18588 -10.17723 -10.17723 -10.17687
 Alpha  occ. eigenvalues --  -10.17686 -10.17603 -10.17603 -10.17513 -10.17513
 Alpha  occ. eigenvalues --  -10.16860 -10.16860 -10.16766 -10.16766 -10.16707
 Alpha  occ. eigenvalues --  -10.16707 -10.16701 -10.16624 -10.16624 -10.16562
 Alpha  occ. eigenvalues --  -10.16513 -10.16513 -10.16409 -10.16409  -0.90422
 Alpha  occ. eigenvalues --   -0.88897  -0.88119  -0.86672  -0.86555  -0.84373
 Alpha  occ. eigenvalues --   -0.83402  -0.81249  -0.80767  -0.79492  -0.79219
 Alpha  occ. eigenvalues --   -0.78587  -0.77360  -0.77106  -0.76879  -0.75218
 Alpha  occ. eigenvalues --   -0.74797  -0.73784  -0.73087  -0.71714  -0.70096
 Alpha  occ. eigenvalues --   -0.68316  -0.67978  -0.66171  -0.63622  -0.63263
 Alpha  occ. eigenvalues --   -0.62016  -0.61546  -0.61220  -0.60837  -0.60159
 Alpha  occ. eigenvalues --   -0.59910  -0.58776  -0.58546  -0.58131  -0.56529
 Alpha  occ. eigenvalues --   -0.53612  -0.53455  -0.53133  -0.51573  -0.51405
 Alpha  occ. eigenvalues --   -0.51144  -0.50500  -0.49395  -0.48487  -0.47963
 Alpha  occ. eigenvalues --   -0.47397  -0.46933  -0.46379  -0.46365  -0.46094
 Alpha  occ. eigenvalues --   -0.45827  -0.45004  -0.44798  -0.44306  -0.43995
 Alpha  occ. eigenvalues --   -0.43369  -0.42805  -0.42651  -0.42418  -0.42374
 Alpha  occ. eigenvalues --   -0.41634  -0.41587  -0.41498  -0.41256  -0.40662
 Alpha  occ. eigenvalues --   -0.40428  -0.40229  -0.40165  -0.39483  -0.39168
 Alpha  occ. eigenvalues --   -0.39020  -0.38451  -0.37569  -0.37214  -0.37162
 Alpha  occ. eigenvalues --   -0.36368  -0.35621  -0.35227  -0.34991  -0.34618
 Alpha  occ. eigenvalues --   -0.33908  -0.33862  -0.33373  -0.32906  -0.32798
 Alpha  occ. eigenvalues --   -0.32278  -0.31830  -0.31405  -0.30718  -0.30297
 Alpha  occ. eigenvalues --   -0.29272  -0.28375  -0.27690  -0.27314  -0.25534
 Alpha  occ. eigenvalues --   -0.25347  -0.23644  -0.23246  -0.21311  -0.18942
 Alpha  occ. eigenvalues --   -0.16566
 Alpha virt. eigenvalues --   -0.10726  -0.08568  -0.05444  -0.03807  -0.03310
 Alpha virt. eigenvalues --   -0.01592  -0.01148   0.00987   0.01093   0.01322
 Alpha virt. eigenvalues --    0.02054   0.03214   0.03419   0.03755   0.03948
 Alpha virt. eigenvalues --    0.03962   0.04889   0.05701   0.05851   0.06066
 Alpha virt. eigenvalues --    0.06146   0.07029   0.07279   0.07353   0.07776
 Alpha virt. eigenvalues --    0.08512   0.08704   0.09407   0.09654   0.10118
 Alpha virt. eigenvalues --    0.10453   0.11086   0.11713   0.12047   0.12955
 Alpha virt. eigenvalues --    0.13177   0.13335   0.13378   0.14136   0.14183
 Alpha virt. eigenvalues --    0.15231   0.15585   0.16413   0.17118   0.17387
 Alpha virt. eigenvalues --    0.17730   0.18115   0.18181   0.19075   0.20086
 Alpha virt. eigenvalues --    0.20277   0.20676   0.21860   0.22079   0.23570
 Alpha virt. eigenvalues --    0.24142   0.24160   0.24405   0.24824   0.25238
 Alpha virt. eigenvalues --    0.25400   0.26351   0.26684   0.26701   0.26789
 Alpha virt. eigenvalues --    0.27150   0.27414   0.28381   0.28599   0.28622
 Alpha virt. eigenvalues --    0.29121   0.29374   0.29502   0.29933   0.30179
 Alpha virt. eigenvalues --    0.30287   0.30769   0.31176   0.32007   0.32009
 Alpha virt. eigenvalues --    0.33239   0.33359   0.33582   0.33910   0.34081
 Alpha virt. eigenvalues --    0.34385   0.34691   0.35252   0.35718   0.35750
 Alpha virt. eigenvalues --    0.35831   0.36465   0.36847   0.37670   0.38003
 Alpha virt. eigenvalues --    0.38032   0.38370   0.38892   0.39022   0.39083
 Alpha virt. eigenvalues --    0.39275   0.39557   0.39631   0.39968   0.40011
 Alpha virt. eigenvalues --    0.40096   0.40338   0.40635   0.40976   0.41141
 Alpha virt. eigenvalues --    0.41537   0.42070   0.42359   0.42486   0.42588
 Alpha virt. eigenvalues --    0.42711   0.43247   0.43403   0.43535   0.44352
 Alpha virt. eigenvalues --    0.44520   0.44733   0.44746   0.45051   0.45068
 Alpha virt. eigenvalues --    0.45155   0.45158   0.45580   0.45639   0.45943
 Alpha virt. eigenvalues --    0.45990   0.46234   0.46360   0.46574   0.46847
 Alpha virt. eigenvalues --    0.46995   0.47150   0.47551   0.47947   0.49027
 Alpha virt. eigenvalues --    0.49053   0.49940   0.50012   0.50298   0.50513
 Alpha virt. eigenvalues --    0.50540   0.50866   0.50904   0.51088   0.51459
 Alpha virt. eigenvalues --    0.52153   0.52466   0.52710   0.53212   0.53375
 Alpha virt. eigenvalues --    0.53591   0.54087   0.54982   0.55456   0.56291
 Alpha virt. eigenvalues --    0.56575   0.56718   0.56955   0.57578   0.57804
 Alpha virt. eigenvalues --    0.58082   0.58368   0.58525   0.59139   0.59276
 Alpha virt. eigenvalues --    0.59800   0.59980   0.60419   0.60785   0.61063
 Alpha virt. eigenvalues --    0.61313   0.61826   0.62186   0.62279   0.62477
 Alpha virt. eigenvalues --    0.62872   0.63102   0.63474   0.63640   0.63839
 Alpha virt. eigenvalues --    0.64007   0.64040   0.64506   0.64621   0.65350
 Alpha virt. eigenvalues --    0.65622   0.65980   0.66011   0.66666   0.66794
 Alpha virt. eigenvalues --    0.67037   0.67473   0.68348   0.68439   0.69949
 Alpha virt. eigenvalues --    0.70043   0.70168   0.70821   0.71250   0.71251
 Alpha virt. eigenvalues --    0.71566   0.71761   0.72053   0.72562   0.72837
 Alpha virt. eigenvalues --    0.73021   0.73645   0.74221   0.74621   0.74695
 Alpha virt. eigenvalues --    0.74783   0.74992   0.76519   0.76603   0.77406
 Alpha virt. eigenvalues --    0.77997   0.78405   0.78409   0.78816   0.79101
 Alpha virt. eigenvalues --    0.79643   0.79972   0.80033   0.80640   0.80919
 Alpha virt. eigenvalues --    0.81372   0.81621   0.82154   0.82348   0.82617
 Alpha virt. eigenvalues --    0.83114   0.83299   0.83619   0.84007   0.84109
 Alpha virt. eigenvalues --    0.84314   0.84680   0.84981   0.85358   0.85703
 Alpha virt. eigenvalues --    0.86899   0.86994   0.87593   0.88860   0.89156
 Alpha virt. eigenvalues --    0.89251   0.90427   0.90539   0.91349   0.91785
 Alpha virt. eigenvalues --    0.93048   0.93594   0.93652   0.94479   0.95376
 Alpha virt. eigenvalues --    0.95502   0.96073   0.96252   0.96758   0.97514
 Alpha virt. eigenvalues --    0.98047   0.98596   0.98929   0.99059   0.99360
 Alpha virt. eigenvalues --    0.99774   1.00039   1.01046   1.01616   1.02550
 Alpha virt. eigenvalues --    1.02643   1.02866   1.03651   1.03700   1.03736
 Alpha virt. eigenvalues --    1.04210   1.04808   1.05031   1.05159   1.05309
 Alpha virt. eigenvalues --    1.05635   1.06013   1.06181   1.06661   1.06787
 Alpha virt. eigenvalues --    1.07384   1.07702   1.08214   1.08255   1.09205
 Alpha virt. eigenvalues --    1.09362   1.09635   1.09684   1.10092   1.10144
 Alpha virt. eigenvalues --    1.10391   1.11174   1.11474   1.12141   1.12488
 Alpha virt. eigenvalues --    1.12647   1.12655   1.13629   1.14097   1.14473
 Alpha virt. eigenvalues --    1.15011   1.15206   1.15533   1.16251   1.16725
 Alpha virt. eigenvalues --    1.16904   1.17350   1.18076   1.18552   1.19409
 Alpha virt. eigenvalues --    1.19876   1.19904   1.22033   1.22691   1.24314
 Alpha virt. eigenvalues --    1.24630   1.24736   1.25586   1.27123   1.27300
 Alpha virt. eigenvalues --    1.27535   1.28039   1.28435   1.29868   1.30522
 Alpha virt. eigenvalues --    1.31428   1.31931   1.32464   1.33311   1.33911
 Alpha virt. eigenvalues --    1.33995   1.35909   1.36821   1.36825   1.37566
 Alpha virt. eigenvalues --    1.39117   1.39476   1.39871   1.39957   1.41115
 Alpha virt. eigenvalues --    1.41286   1.41983   1.42535   1.42559   1.44063
 Alpha virt. eigenvalues --    1.44401   1.44618   1.45143   1.45388   1.45993
 Alpha virt. eigenvalues --    1.46237   1.47138   1.47619   1.48237   1.48324
 Alpha virt. eigenvalues --    1.48354   1.48603   1.48675   1.49215   1.49286
 Alpha virt. eigenvalues --    1.49316   1.50116   1.50694   1.50890   1.51057
 Alpha virt. eigenvalues --    1.51308   1.51578   1.52033   1.52544   1.53092
 Alpha virt. eigenvalues --    1.53376   1.53437   1.53961   1.54109   1.55290
 Alpha virt. eigenvalues --    1.55772   1.56075   1.56280   1.56286   1.56917
 Alpha virt. eigenvalues --    1.57895   1.57906   1.59351   1.59415   1.59778
 Alpha virt. eigenvalues --    1.60302   1.60338   1.60954   1.62285   1.62368
 Alpha virt. eigenvalues --    1.62737   1.62943   1.63219   1.63361   1.65728
 Alpha virt. eigenvalues --    1.65923   1.66270   1.66727   1.68217   1.68317
 Alpha virt. eigenvalues --    1.68554   1.68987   1.71079   1.71144   1.71356
 Alpha virt. eigenvalues --    1.71679   1.71989   1.72264   1.72776   1.73320
 Alpha virt. eigenvalues --    1.73626   1.73751   1.74027   1.74212   1.74482
 Alpha virt. eigenvalues --    1.74519   1.75340   1.75669   1.76691   1.77379
 Alpha virt. eigenvalues --    1.78059   1.78178   1.78611   1.79755   1.80006
 Alpha virt. eigenvalues --    1.80445   1.81045   1.81848   1.81897   1.82137
 Alpha virt. eigenvalues --    1.82349   1.82431   1.83128   1.83491   1.84107
 Alpha virt. eigenvalues --    1.84526   1.84742   1.84866   1.84982   1.86060
 Alpha virt. eigenvalues --    1.86684   1.86828   1.87137   1.87417   1.88052
 Alpha virt. eigenvalues --    1.88264   1.88288   1.88937   1.89253   1.89364
 Alpha virt. eigenvalues --    1.89737   1.90278   1.90803   1.90892   1.91505
 Alpha virt. eigenvalues --    1.91841   1.92364   1.92845   1.92860   1.93014
 Alpha virt. eigenvalues --    1.93527   1.93678   1.93876   1.94031   1.94915
 Alpha virt. eigenvalues --    1.95157   1.95568   1.95975   1.96386   1.96509
 Alpha virt. eigenvalues --    1.96745   1.97149   1.97285   1.98163   1.98360
 Alpha virt. eigenvalues --    1.99273   2.00454   2.01080   2.02556   2.02786
 Alpha virt. eigenvalues --    2.02987   2.03451   2.03808   2.04194   2.05268
 Alpha virt. eigenvalues --    2.07261   2.07570   2.08459   2.09344   2.09448
 Alpha virt. eigenvalues --    2.11029   2.11353   2.11503   2.11845   2.12769
 Alpha virt. eigenvalues --    2.13242   2.13834   2.14558   2.15102   2.15278
 Alpha virt. eigenvalues --    2.16204   2.17085   2.17571   2.18732   2.18946
 Alpha virt. eigenvalues --    2.19221   2.19729   2.20084   2.22241   2.22969
 Alpha virt. eigenvalues --    2.23128   2.23400   2.23645   2.23805   2.24023
 Alpha virt. eigenvalues --    2.25862   2.26271   2.26396   2.26939   2.27342
 Alpha virt. eigenvalues --    2.27451   2.27620   2.28146   2.28763   2.29071
 Alpha virt. eigenvalues --    2.29142   2.30552   2.31625   2.32236   2.34111
 Alpha virt. eigenvalues --    2.34934   2.36070   2.36904   2.37963   2.38488
 Alpha virt. eigenvalues --    2.38626   2.40160   2.40734   2.41100   2.42075
 Alpha virt. eigenvalues --    2.43265   2.43385   2.44833   2.45073   2.45109
 Alpha virt. eigenvalues --    2.45227   2.46303   2.47660   2.47779   2.50069
 Alpha virt. eigenvalues --    2.52111   2.52900   2.53504   2.54107   2.54292
 Alpha virt. eigenvalues --    2.55063   2.56122   2.57070   2.57260   2.58455
 Alpha virt. eigenvalues --    2.59043   2.59376   2.59802   2.60401   2.60683
 Alpha virt. eigenvalues --    2.61179   2.61234   2.61370   2.61651   2.61891
 Alpha virt. eigenvalues --    2.62043   2.63354   2.63624   2.63777   2.63988
 Alpha virt. eigenvalues --    2.64334   2.64401   2.64965   2.65336   2.66487
 Alpha virt. eigenvalues --    2.66572   2.66644   2.66762   2.67238   2.67391
 Alpha virt. eigenvalues --    2.67831   2.67894   2.68399   2.68404   2.68485
 Alpha virt. eigenvalues --    2.68821   2.69672   2.69839   2.70294   2.70440
 Alpha virt. eigenvalues --    2.70618   2.70846   2.70967   2.72626   2.72704
 Alpha virt. eigenvalues --    2.72985   2.73893   2.74019   2.74060   2.74281
 Alpha virt. eigenvalues --    2.74738   2.74913   2.75165   2.75341   2.75650
 Alpha virt. eigenvalues --    2.76458   2.76564   2.76716   2.77430   2.77799
 Alpha virt. eigenvalues --    2.78014   2.78489   2.78761   2.79522   2.79786
 Alpha virt. eigenvalues --    2.79944   2.80288   2.81586   2.81607   2.83762
 Alpha virt. eigenvalues --    2.84226   2.84484   2.84765   2.84979   2.85364
 Alpha virt. eigenvalues --    2.86336   2.88111   2.88636   2.88726   2.89423
 Alpha virt. eigenvalues --    2.89731   2.90228   2.90751   2.92093   2.92620
 Alpha virt. eigenvalues --    2.93145   2.94434   2.95130   2.95344   2.95375
 Alpha virt. eigenvalues --    2.96781   2.97697   2.98437   2.98828   3.00370
 Alpha virt. eigenvalues --    3.01332   3.01388   3.01683   3.02125   3.03962
 Alpha virt. eigenvalues --    3.05441   3.06142   3.06747   3.07986   3.09413
 Alpha virt. eigenvalues --    3.10651   3.10681   3.16474   3.16546   3.17602
 Alpha virt. eigenvalues --    3.18111   3.18485   3.19140   3.19184   3.21183
 Alpha virt. eigenvalues --    3.21675   3.22712   3.24734   3.26078   3.30617
 Alpha virt. eigenvalues --    3.31101   3.31704   3.32194   3.32237   3.33954
 Alpha virt. eigenvalues --    3.35469   3.37095   3.37168   3.37370   3.37655
 Alpha virt. eigenvalues --    3.38242   3.38613   3.39619   3.39685   3.40885
 Alpha virt. eigenvalues --    3.41623   3.41810   3.43123   3.44595   3.44907
 Alpha virt. eigenvalues --    3.45170   3.46686   3.47238   3.49705   3.49812
 Alpha virt. eigenvalues --    3.51136   3.52104   3.52713   3.53703   3.53860
 Alpha virt. eigenvalues --    3.56138   3.57162   3.59001   3.59245   3.60906
 Alpha virt. eigenvalues --    3.62604   3.63337   3.63468   3.64777   3.65135
 Alpha virt. eigenvalues --    3.65226   3.66709   3.67913   3.68377   3.68558
 Alpha virt. eigenvalues --    3.70028   3.73388   3.75221   3.76491   4.00409
 Alpha virt. eigenvalues --    4.00435   4.01123   4.01455   4.02456   4.02528
 Alpha virt. eigenvalues --    4.03366   4.03660   4.15514   4.16019   4.17657
 Alpha virt. eigenvalues --    4.20035   4.20484   4.20567   4.20816   4.21705
 Alpha virt. eigenvalues --    4.21781   4.24140   4.24140   4.26649   4.27425
 Alpha virt. eigenvalues --    4.30339   4.38668   4.41800   4.62774   4.65360
 Alpha virt. eigenvalues --    4.78254   4.78943   4.79693   4.81459   4.81748
 Alpha virt. eigenvalues --    4.81892   4.82322   4.83667   4.85948   4.86009
 Alpha virt. eigenvalues --   23.41698  23.47812  23.56281  23.64271  23.70477
 Alpha virt. eigenvalues --   23.77324  23.77730  23.80561  23.81306  23.81590
 Alpha virt. eigenvalues --   23.83689  23.85671  23.87757  23.88506  23.88647
 Alpha virt. eigenvalues --   23.90324  23.91406  23.92151  23.93119  23.96611
 Alpha virt. eigenvalues --   23.96979  23.98966  23.99336  24.01314  24.09064
 Alpha virt. eigenvalues --   24.09551  24.10362  24.10996  24.11358  24.11386
 Alpha virt. eigenvalues --   24.11994  24.12894  24.13467  24.14477  24.15215
 Alpha virt. eigenvalues --   24.15245  24.15447  24.16044  24.17019  24.17048
 Alpha virt. eigenvalues --   24.19660  24.19704  24.21893  24.21959
          Condensed to atoms (all electrons):
 Mulliken charges:
               1
     1  C   -0.068103
     2  C   -0.085525
     3  C   -0.049040
     4  C   -0.059165
     5  C   -0.093867
     6  C   -0.097672
     7  C   -0.000711
     8  C   -0.064735
     9  C   -0.013593
    10  C   -0.079969
    11  H    0.085566
    12  H    0.077903
    13  H    0.077299
    14  H    0.085394
    15  H    0.098664
    16  H    0.098551
    17  C   -0.005193
    18  C   -0.064735
    19  C   -0.017960
    20  C   -0.079969
    21  H    0.076629
    22  H    0.076045
    23  C   -0.000711
    24  C   -0.068103
    25  C   -0.013593
    26  C   -0.085525
    27  H    0.077903
    28  H    0.077299
    29  C   -0.049040
    30  C   -0.093867
    31  C   -0.059165
    32  C   -0.097672
    33  H    0.085566
    34  H    0.098551
    35  H    0.098664
    36  H    0.085394
    37  C   -0.008476
    38  C   -0.149876
    39  C   -0.065651
    40  C   -0.013909
    41  C   -0.084998
    42  C   -0.135326
    43  C   -0.034441
    44  C    0.003993
    45  C    0.026804
    46  C   -0.158418
    47  H    0.077261
    48  H    0.068647
    49  H    0.118194
    50  H    0.125913
    51  H    0.081207
    52  H    0.089540
    53  C   -0.038516
    54  C    0.003993
    55  C    0.022987
    56  C   -0.158418
    57  H    0.067261
    58  H    0.115827
    59  C   -0.034441
    60  C   -0.008476
    61  C    0.026804
    62  C   -0.149876
    63  H    0.068647
    64  H    0.118194
    65  C   -0.065651
    66  C   -0.084998
    67  C   -0.013909
    68  C   -0.135326
    69  H    0.077261
    70  H    0.089540
    71  H    0.081207
    72  H    0.125913
 Sum of Mulliken charges =   0.00000
 Mulliken charges with hydrogens summed into heavy atoms:
               1
     1  C   -0.068103
     2  C   -0.085525
     3  C    0.036526
     4  C    0.026229
     5  C    0.004684
     6  C    0.000992
     7  C    0.077191
     8  C   -0.064735
     9  C    0.063706
    10  C   -0.079969
    17  C    0.071437
    18  C   -0.064735
    19  C    0.058085
    20  C   -0.079969
    23  C    0.077191
    24  C   -0.068103
    25  C    0.063706
    26  C   -0.085525
    29  C    0.036526
    30  C    0.004684
    31  C    0.026229
    32  C    0.000992
    37  C   -0.008476
    38  C   -0.149876
    39  C    0.011611
    40  C    0.112004
    41  C    0.004542
    42  C   -0.054119
    43  C    0.034206
    44  C    0.003993
    45  C    0.144998
    46  C   -0.158418
    53  C    0.028745
    54  C    0.003993
    55  C    0.138814
    56  C   -0.158418
    59  C    0.034206
    60  C   -0.008476
    61  C    0.144998
    62  C   -0.149876
    65  C    0.011611
    66  C    0.004542
    67  C    0.112004
    68  C   -0.054119
         Mulliken charges condensed to fragments:
      1     -0.048488
      2      0.048488
 Electronic spatial extent (au):  <R**2>=          24546.2861
 Charge=              0.0000 electrons
 Dipole moment (field-independent basis, Debye):
    X=              0.1361    Y=             -2.0976    Z=              0.0000  Tot=              2.1020
 Quadrupole moment (field-independent basis, Debye-Ang):
   XX=           -245.0393   YY=           -250.5512   ZZ=           -220.7165
   XY=             -0.0969   XZ=              0.0000   YZ=              0.0000
 Traceless Quadrupole moment (field-independent basis, Debye-Ang):
   XX=             -6.2703   YY=            -11.7822   ZZ=             18.0525
   XY=             -0.0969   XZ=              0.0000   YZ=              0.0000
 Octapole moment (field-independent basis, Debye-Ang**2):
  XXX=              7.6483  YYY=            153.4883  ZZZ=              0.0000  XYY=             -1.0915
  XXY=            -67.6681  XXZ=              0.0000  XZZ=              2.5165  YZZ=            -45.0426
  YYZ=              0.0000  XYZ=              0.0000
 Hexadecapole moment (field-independent basis, Debye-Ang**3):
 XXXX=          -1264.0888 YYYY=          -9799.4938 ZZZZ=         -21101.2146 XXXY=            154.9689
 XXXZ=              0.0000 YYYX=            156.7513 YYYZ=              0.0000 ZZZX=              0.0000
 ZZZY=              0.0000 XXYY=          -1913.1042 XXZZ=          -4151.6126 YYZZ=          -5475.9260
 XXYZ=              0.0000 YYXZ=              0.0000 ZZXY=             45.2453
 N-N= 4.750223135529D+03 E-N=-1.343109360274D+04  KE= 1.686765654048D+03
 Symmetry A'   KE= 9.134778368864D+02
 Symmetry A"   KE= 7.732878171620D+02
 No NMR shielding tensors so no spin-rotation constants.
 Leave Link  601 at Wed Sep 27 16:40:03 2023, MaxMem=  3221225472 cpu:              49.6 elap:               1.3
 (Enter /home/center/opt/aarch64/apps/gaussian16/c01/g16/l122.exe)
 CPIOFr:  IOpCl= 0 IRwI=-1 IRwCP=  731 ICalc= -1 LCPTot=     1419224 Len1MO=     3708034 IndFrg=     1419224
 CPIOFr:  IOpCl= 0 IRwI=-1 IRwCP=  731 ICalc=  0 LCPTot=     1419224 Len1MO=     3708034 IndFrg=     5127258
 Counterpoise: doing calculation for fragment   1 using the basis set of the full-system, NewBq=T
 Leave Link  122 at Wed Sep 27 16:40:06 2023, MaxMem=  3221225472 cpu:               8.3 elap:               0.4
 (Enter /home/center/opt/aarch64/apps/gaussian16/c01/g16/l301.exe)
 Basis read from rwf:  (5D, 7F)
 No pseudopotential information found on rwf file.
 There are   528 symmetry adapted cartesian basis functions of A'  symmetry.
 There are   476 symmetry adapted cartesian basis functions of A"  symmetry.
 There are   504 symmetry adapted basis functions of A'  symmetry.
 There are   456 symmetry adapted basis functions of A"  symmetry.
   960 basis functions,  1632 primitive gaussians,  1004 cartesian basis functions
    73 alpha electrons       73 beta electrons
       nuclear repulsion energy      1494.3575060191 Hartrees.
 IExCor=  402 DFT=T Ex+Corr=B3LYP ExCW=0 ScaHFX=  0.200000
 ScaDFX=  0.800000  0.720000  1.000000  0.810000 ScalE2=  1.000000  1.000000
 IRadAn=      5 IRanWt=     -1 IRanGd=            0 ICorTp=0 IEmpDi=131
 NAtoms=   72 NActive=   72 NUniq=   40 SFac= 3.24D+00 NAtFMM=   60 NAOKFM=T Big=F
 Integral buffers will be    131072 words long.
 Raffenetti 2 integral format.
 Two-electron integral symmetry is turned on.
 R6Disp:  Grimme-D3 Dispersion energy=       -0.0303938888 Hartrees.
 Nuclear repulsion after empirical dispersion term =     1494.3271121303 Hartrees.
 No density basis found on file    718.
 Leave Link  301 at Wed Sep 27 16:40:08 2023, MaxMem=  3221225472 cpu:               2.2 elap:               0.1
 (Enter /home/center/opt/aarch64/apps/gaussian16/c01/g16/l302.exe)
 NPDir=0 NMtPBC=     1 NCelOv=     1 NCel=       1 NClECP=     1 NCelD=      1
         NCelK=      1 NCelE2=     1 NClLst=     1 CellRange=     0.0.
 One-electron integrals computed using PRISM.
 One-electron integral symmetry used in STVInt
 NBasis=   960 RedAO= T EigKep=  3.72D-05  NBF=   504   456
 NBsUse=   960 1.00D-06 EigRej= -1.00D+00 NBFU=   504   456
 Precomputing XC quadrature grid using
 IXCGrd= 4 IRadAn=           5 IRanWt=          -1 IRanGd=           0 AccXCQ= 0.00D+00.
 Generated NRdTot=       0 NPtTot=           0 NUsed=           0 NTot=          32
 NSgBfM=   991   991   991   991   991 MxSgAt=    72 MxSgA2=    72.
 Leave Link  302 at Wed Sep 27 16:40:12 2023, MaxMem=  3221225472 cpu:              60.7 elap:               1.7
 (Enter /home/center/opt/aarch64/apps/gaussian16/c01/g16/l303.exe)
 DipDrv:  MaxL=1.
 Leave Link  303 at Wed Sep 27 16:40:15 2023, MaxMem=  3221225472 cpu:              12.2 elap:               0.3
 (Enter /home/center/opt/aarch64/apps/gaussian16/c01/g16/l401.exe)
 ExpMin= 1.03D-01 ExpMax= 4.56D+03 ExpMxC= 6.82D+02 IAcc=3 IRadAn=         5 AccDes= 0.00D+00
 Harris functional with IExCor=  402 and IRadAn=       5 diagonalized for initial guess.
 HarFok:  IExCor=  402 AccDes= 0.00D+00 IRadAn=         5 IDoV= 1 UseB2=F ITyADJ=14
 ICtDFT=  3500011 ScaDFX=  1.000000  1.000000  1.000000  1.000000
 FoFCou: FMM=F IPFlag=           0 FMFlag=      100000 FMFlg1=        2000
         NFxFlg=           0 DoJE=T BraDBF=F KetDBF=T FulRan=T
         wScrn=  0.000000 ICntrl=       500 IOpCl=  0 I1Cent=   200000004 NGrid=           0
         NMat0=    1 NMatS0=      1 NMatT0=    0 NMatD0=    1 NMtDS0=    0 NMtDT0=    0
 Petite list used in FoFCou.
 Harris En= -847.067912341949    
 JPrj=0 DoOrth=F DoCkMO=F.
 Initial guess orbital symmetries:
       Occupied  (A") (A') (A') (A") (A") (A') (A") (A') (A") (A')
                 (A") (A') (A') (A') (A") (A') (A") (A') (A") (A')
                 (A') (A") (A') (A") (A') (A") (A') (A') (A") (A')
                 (A") (A") (A') (A') (A") (A") (A') (A") (A') (A')
                 (A') (A") (A") (A") (A') (A') (A") (A') (A') (A")
                 (A') (A") (A") (A') (A') (A") (A') (A") (A') (A")
                 (A") (A') (A') (A") (A') (A") (A') (A") (A') (A')
                 (A") (A") (A')
       Virtual   (A') (A") (A") (A') (A') (A") (A') (A") (A') (A")
                 (A') (A') (A") (A') (A") (A') (A') (A") (A') (A")
                 (A") (A") (A') (A') (A') (A") (A') (A') (A") (A')
                 (A') (A") (A") (A') (A') (A") (A') (A") (A") (A')
                 (A') (A") (A") (A') (A") (A') (A") (A') (A") (A')
                 (A') (A") (A') (A') (A") (A") (A') (A") (A') (A')
                 (A') (A") (A') (A') (A") (A") (A") (A") (A') (A')
                 (A") (A') (A") (A') (A') (A') (A") (A') (A') (A")
                 (A') (A") (A") (A") (A') (A") (A") (A') (A') (A")
                 (A') (A') (A") (A") (A') (A') (A') (A') (A') (A")
                 (A') (A") (A") (A') (A") (A") (A') (A") (A') (A')
                 (A") (A') (A') (A") (A") (A') (A") (A") (A") (A')
                 (A') (A") (A') (A") (A') (A') (A') (A") (A") (A')
                 (A') (A') (A") (A') (A") (A') (A") (A') (A') (A")
                 (A") (A') (A") (A') (A") (A') (A") (A") (A') (A")
                 (A') (A') (A") (A') (A") (A') (A") (A') (A') (A")
                 (A") (A') (A') (A') (A") (A") (A') (A') (A") (A")
                 (A') (A") (A') (A") (A') (A') (A") (A") (A') (A")
                 (A') (A') (A") (A") (A") (A') (A') (A') (A") (A")
                 (A') (A') (A') (A") (A') (A') (A") (A") (A') (A")
                 (A') (A") (A") (A') (A") (A') (A') (A") (A") (A')
                 (A') (A") (A") (A') (A") (A') (A') (A") (A') (A")
                 (A') (A") (A') (A") (A') (A") (A') (A') (A") (A")
                 (A') (A") (A') (A') (A") (A') (A") (A") (A') (A')
                 (A') (A") (A') (A") (A') (A") (A") (A') (A") (A")
                 (A') (A") (A') (A') (A') (A") (A") (A') (A") (A')
                 (A") (A') (A') (A') (A") (A") (A') (A") (A") (A')
                 (A') (A") (A') (A") (A') (A") (A") (A') (A') (A')
                 (A") (A') (A") (A") (A') (A") (A') (A") (A') (A')
                 (A') (A') (A") (A") (A") (A') (A") (A') (A') (A")
                 (A') (A") (A') (A') (A") (A') (A") (A") (A") (A')
                 (A') (A") (A') (A") (A') (A') (A") (A') (A") (A")
                 (A") (A') (A') (A") (A') (A") (A') (A") (A') (A')
                 (A') (A") (A') (A') (A') (A") (A") (A") (A') (A")
                 (A') (A") (A") (A') (A") (A") (A') (A') (A') (A')
                 (A") (A') (A") (A') (A') (A') (A") (A') (A") (A")
                 (A') (A') (A") (A') (A") (A') (A") (A') (A") (A")
                 (A') (A") (A") (A") (A') (A") (A') (A') (A") (A')
                 (A") (A") (A') (A') (A') (A") (A') (A') (A") (A")
                 (A') (A') (A") (A") (A') (A") (A') (A") (A') (A")
                 (A') (A') (A") (A') (A") (A") (A") (A') (A') (A')
                 (A") (A') (A") (A') (A') (A") (A") (A") (A') (A')
                 (A") (A") (A') (A") (A') (A") (A") (A") (A') (A")
                 (A') (A') (A') (A') (A') (A") (A") (A') (A') (A')
                 (A") (A') (A') (A") (A") (A') (A") (A") (A") (A")
                 (A') (A') (A') (A") (A") (A") (A') (A") (A') (A")
                 (A') (A') (A') (A") (A") (A') (A') (A') (A") (A")
                 (A') (A') (A") (A") (A") (A") (A') (A') (A") (A')
                 (A") (A') (A") (A') (A') (A") (A') (A") (A') (A")
                 (A") (A') (A') (A") (A') (A') (A") (A") (A') (A")
                 (A") (A') (A') (A") (A') (A") (A') (A") (A') (A')
                 (A") (A") (A") (A') (A') (A") (A') (A") (A') (A")
                 (A") (A') (A') (A') (A") (A') (A') (A") (A") (A')
                 (A') (A") (A') (A") (A") (A') (A") (A') (A') (A')
                 (A") (A") (A') (A') (A") (A') (A") (A') (A") (A')
                 (A") (A') (A") (A') (A") (A') (A") (A") (A') (A')
                 (A") (A") (A') (A') (A") (A') (A") (A') (A") (A')
                 (A') (A') (A") (A") (A') (A') (A") (A') (A') (A")
                 (A") (A') (A") (A") (A') (A") (A") (A') (A") (A')
                 (A') (A') (A') (A') (A") (A") (A') (A") (A") (A')
                 (A") (A') (A") (A") (A') (A') (A") (A') (A") (A')
                 (A") (A') (A') (A") (A') (A") (A') (A") (A') (A')
                 (A") (A') (A") (A") (A') (A") (A') (A") (A") (A')
                 (A") (A") (A') (A") (A') (A") (A') (A') (A') (A")
                 (A") (A') (A") (A') (A') (A') (A") (A") (A") (A')
                 (A") (A') (A") (A') (A') (A") (A') (A") (A") (A')
                 (A") (A") (A') (A") (A') (A") (A') (A") (A') (A')
                 (A') (A") (A') (A") (A") (A') (A') (A") (A') (A')
                 (A") (A') (A") (A') (A') (A') (A") (A') (A") (A")
                 (A') (A") (A') (A') (A") (A") (A') (A") (A') (A')
                 (A") (A") (A') (A") (A') (A") (A') (A') (A") (A')
[...]
                 (A') (A") (A') (A') (A') (A") (A") (A") (A") (A')
                 (A') (A') (A") (A") (A') (A") (A') (A") (A') (A')
                 (A") (A") (A')
       Virtual   (A') (A") (A") (A') (A') (A") (A') (A') (A') (A")
                 (A") (A') (A") (A') (A") (A') (A") (A") (A') (A")
                 (A') (A') (A") (A') (A") (A') (A') (A') (A') (A")
                 (A") (A") (A") (A') (A') (A") (A') (A") (A') (A")
                 (A') (A') (A') (A") (A') (A") (A") (A') (A') (A")
                 (A") (A') (A') (A") (A') (A") (A") (A") (A') (A")
                 (A') (A') (A') (A') (A') (A") (A') (A') (A") (A")
                 (A") (A') (A') (A') (A") (A') (A") (A") (A") (A')
                 (A') (A") (A') (A") (A") (A') (A") (A') (A') (A')
                 (A') (A') (A") (A") (A") (A") (A') (A") (A') (A")
                 (A') (A') (A') (A") (A") (A') (A') (A") (A') (A")
                 (A') (A") (A") (A") (A') (A') (A") (A') (A') (A")
                 (A') (A") (A") (A') (A') (A") (A') (A") (A') (A")
                 (A") (A') (A') (A') (A') (A") (A") (A") (A') (A")
                 (A') (A") (A') (A") (A') (A') (A") (A") (A') (A")
                 (A') (A") (A') (A") (A') (A') (A") (A') (A") (A")
                 (A') (A") (A') (A') (A") (A") (A') (A") (A') (A")
                 (A') (A') (A") (A') (A') (A") (A") (A') (A') (A')
                 (A") (A') (A") (A") (A") (A") (A') (A") (A') (A')
                 (A") (A') (A") (A') (A') (A') (A") (A') (A") (A')
                 (A") (A") (A') (A') (A") (A") (A') (A') (A") (A')
                 (A') (A') (A') (A") (A") (A") (A") (A') (A') (A")
                 (A') (A") (A") (A') (A") (A') (A") (A') (A") (A')
                 (A") (A') (A') (A") (A') (A") (A") (A') (A') (A")
                 (A") (A') (A') (A") (A") (A') (A") (A") (A") (A')
                 (A') (A") (A') (A') (A") (A') (A') (A") (A') (A")
                 (A") (A') (A") (A') (A') (A") (A") (A") (A') (A')
                 (A") (A') (A') (A") (A") (A") (A') (A") (A') (A')
                 (A") (A') (A") (A') (A") (A') (A') (A') (A") (A')
                 (A") (A") (A') (A') (A") (A") (A') (A") (A') (A")
                 (A') (A') (A") (A") (A') (A') (A") (A') (A') (A')
                 (A") (A") (A') (A") (A') (A") (A') (A") (A') (A')
                 (A') (A") (A") (A") (A') (A") (A') (A') (A') (A")
                 (A") (A') (A") (A') (A') (A") (A') (A") (A") (A')
                 (A') (A") (A') (A") (A") (A') (A') (A") (A') (A")
                 (A') (A") (A') (A") (A') (A") (A") (A') (A') (A")
                 (A') (A") (A') (A') (A") (A") (A') (A") (A') (A')
                 (A") (A') (A") (A') (A') (A") (A') (A") (A') (A")
                 (A") (A') (A") (A') (A") (A') (A") (A') (A') (A")
                 (A") (A') (A") (A') (A') (A") (A") (A') (A') (A")
                 (A') (A") (A') (A") (A') (A') (A")
 The electronic state is 1-A'.
 Alpha  occ. eigenvalues --  -10.18931 -10.18930 -10.18896 -10.18895 -10.18848
 Alpha  occ. eigenvalues --  -10.18848 -10.18813 -10.18813 -10.17956 -10.17955
 Alpha  occ. eigenvalues --  -10.17920 -10.17920 -10.17919 -10.17919 -10.17875
 Alpha  occ. eigenvalues --  -10.17875 -10.17863 -10.17863 -10.17808 -10.17808
 Alpha  occ. eigenvalues --  -10.17781 -10.17781  -0.89340  -0.87865  -0.85549
 Alpha  occ. eigenvalues --   -0.82415  -0.79820  -0.78521  -0.78314  -0.75991
 Alpha  occ. eigenvalues --   -0.74255  -0.72901  -0.69196  -0.67344  -0.62728
 Alpha  occ. eigenvalues --   -0.62370  -0.61108  -0.59964  -0.59301  -0.57689
 Alpha  occ. eigenvalues --   -0.52709  -0.52573  -0.52293  -0.49654  -0.48513
 Alpha  occ. eigenvalues --   -0.47160  -0.46110  -0.45590  -0.45476  -0.43928
 Alpha  occ. eigenvalues --   -0.43182  -0.42578  -0.41808  -0.41572  -0.41386
 Alpha  occ. eigenvalues --   -0.40692  -0.40405  -0.39579  -0.38193  -0.36732
 Alpha  occ. eigenvalues --   -0.36341  -0.35550  -0.34094  -0.33809  -0.33058
 Alpha  occ. eigenvalues --   -0.32930  -0.31612  -0.29665  -0.28406  -0.26623
 Alpha  occ. eigenvalues --   -0.24364  -0.22582  -0.17855
 Alpha virt. eigenvalues --   -0.09755  -0.04464  -0.02747  -0.00147   0.02073
 Alpha virt. eigenvalues --    0.02370   0.03189   0.04746   0.04859   0.04871
 Alpha virt. eigenvalues --    0.06161   0.06575   0.07968   0.08162   0.08303
 Alpha virt. eigenvalues --    0.09607   0.10049   0.11524   0.11533   0.13796
 Alpha virt. eigenvalues --    0.14111   0.14670   0.18092   0.18194   0.18832
 Alpha virt. eigenvalues --    0.19391   0.22815   0.23002   0.24379   0.24942
 Alpha virt. eigenvalues --    0.25581   0.27528   0.27575   0.28012   0.28228
 Alpha virt. eigenvalues --    0.28947   0.29389   0.30158   0.30759   0.31175
 Alpha virt. eigenvalues --    0.32897   0.34528   0.36420   0.36484   0.37134
 Alpha virt. eigenvalues --    0.37503   0.37629   0.37651   0.38116   0.38643
 Alpha virt. eigenvalues --    0.39094   0.39439   0.39739   0.40236   0.40435
 Alpha virt. eigenvalues --    0.41918   0.41926   0.41940   0.42289   0.42318
 Alpha virt. eigenvalues --    0.42643   0.43748   0.44233   0.44835   0.45295
 Alpha virt. eigenvalues --    0.45683   0.45924   0.45953   0.46379   0.47165
 Alpha virt. eigenvalues --    0.47805   0.47809   0.47978   0.48073   0.48231
 Alpha virt. eigenvalues --    0.48568   0.49414   0.49572   0.51377   0.51846
 Alpha virt. eigenvalues --    0.52370   0.53118   0.53671   0.55998   0.57923
 Alpha virt. eigenvalues --    0.57955   0.59048   0.59201   0.60433   0.60585
 Alpha virt. eigenvalues --    0.60693   0.61101   0.61690   0.62105   0.62173
 Alpha virt. eigenvalues --    0.63432   0.63481   0.64458   0.64535   0.65533
 Alpha virt. eigenvalues --    0.66693   0.66910   0.67680   0.67724   0.70658
 Alpha virt. eigenvalues --    0.71305   0.71405   0.71494   0.72803   0.73989
 Alpha virt. eigenvalues --    0.75405   0.75894   0.76289   0.77801   0.77809
 Alpha virt. eigenvalues --    0.78943   0.79160   0.79723   0.81162   0.81509
 Alpha virt. eigenvalues --    0.82881   0.83001   0.84383   0.84585   0.84713
 Alpha virt. eigenvalues --    0.88087   0.89711   0.89765   0.91536   0.92083
 Alpha virt. eigenvalues --    0.92578   0.93749   0.95806   0.96107   0.96442
 Alpha virt. eigenvalues --    0.96590   0.96905   0.98547   1.00356   1.01118
 Alpha virt. eigenvalues --    1.02686   1.03027   1.03354   1.04405   1.05244
 Alpha virt. eigenvalues --    1.05439   1.05525   1.05950   1.07395   1.07547
 Alpha virt. eigenvalues --    1.07686   1.08438   1.10005   1.10036   1.12070
 Alpha virt. eigenvalues --    1.13223   1.13544   1.13650   1.14526   1.15341
 Alpha virt. eigenvalues --    1.17432   1.18332   1.19657   1.20432   1.23014
 Alpha virt. eigenvalues --    1.23618   1.27884   1.28234   1.30579   1.32076
 Alpha virt. eigenvalues --    1.32743   1.34942   1.37641   1.39236   1.39896
 Alpha virt. eigenvalues --    1.39942   1.40725   1.42751   1.43476   1.43554
 Alpha virt. eigenvalues --    1.45057   1.46086   1.47119   1.47538   1.48841
 Alpha virt. eigenvalues --    1.49280   1.49417   1.50258   1.50674   1.52268
 Alpha virt. eigenvalues --    1.52650   1.53402   1.54331   1.54372   1.54781
 Alpha virt. eigenvalues --    1.54807   1.57107   1.57715   1.58569   1.59882
 Alpha virt. eigenvalues --    1.60106   1.62692   1.63242   1.64856   1.66641
 Alpha virt. eigenvalues --    1.69292   1.69605   1.69709   1.70649   1.71804
 Alpha virt. eigenvalues --    1.72459   1.72619   1.73075   1.73096   1.73680
 Alpha virt. eigenvalues --    1.77494   1.78519   1.79157   1.79419   1.80511
 Alpha virt. eigenvalues --    1.81616   1.81887   1.82058   1.83581   1.84039
 Alpha virt. eigenvalues --    1.85487   1.87392   1.87456   1.87577   1.87728
 Alpha virt. eigenvalues --    1.88131   1.88613   1.90743   1.91387   1.92190
 Alpha virt. eigenvalues --    1.92193   1.92572   1.92670   1.93517   1.93938
 Alpha virt. eigenvalues --    1.94544   1.95483   1.97262   1.99429   2.00088
 Alpha virt. eigenvalues --    2.00602   2.01362   2.03019   2.05757   2.08293
 Alpha virt. eigenvalues --    2.09111   2.09256   2.09792   2.12192   2.14098
 Alpha virt. eigenvalues --    2.15528   2.15584   2.17200   2.19751   2.20833
 Alpha virt. eigenvalues --    2.21576   2.22525   2.23381   2.24503   2.26441
 Alpha virt. eigenvalues --    2.26972   2.27242   2.27719   2.28046   2.29391
 Alpha virt. eigenvalues --    2.33301   2.35725   2.39155   2.39384   2.40817
 Alpha virt. eigenvalues --    2.42649   2.43076   2.45776   2.45994   2.46870
 Alpha virt. eigenvalues --    2.51623   2.51954   2.53354   2.53485   2.55138
 Alpha virt. eigenvalues --    2.56159   2.58701   2.58838   2.59764   2.59776
 Alpha virt. eigenvalues --    2.60682   2.61147   2.61719   2.62222   2.63349
 Alpha virt. eigenvalues --    2.63999   2.64478   2.66054   2.66794   2.67121
 Alpha virt. eigenvalues --    2.67374   2.68356   2.68872   2.68876   2.69372
 Alpha virt. eigenvalues --    2.69557   2.69907   2.70083   2.70281   2.73482
 Alpha virt. eigenvalues --    2.74771   2.74836   2.76066   2.77101   2.77577
 Alpha virt. eigenvalues --    2.78232   2.78455   2.78850   2.80822   2.82359
 Alpha virt. eigenvalues --    2.85535   2.85993   2.86737   2.87294   2.90966
 Alpha virt. eigenvalues --    2.91783   2.92195   2.93676   2.95232   2.95887
 Alpha virt. eigenvalues --    2.99270   2.99858   3.03165   3.05604   3.06852
 Alpha virt. eigenvalues --    3.07371   3.15988   3.16029   3.16647   3.19843
 Alpha virt. eigenvalues --    3.20017   3.23601   3.29134   3.29680   3.31610
 Alpha virt. eigenvalues --    3.35095   3.35458   3.35677   3.35858   3.38023
 Alpha virt. eigenvalues --    3.39887   3.41413   3.44960   3.45362   3.47993
 Alpha virt. eigenvalues --    3.48278   3.50401   3.53073   3.57439   3.58649
 Alpha virt. eigenvalues --    3.61466   3.62620   3.63208   3.63698   3.65910
 Alpha virt. eigenvalues --    3.67534   3.67678   4.00384   4.00442   4.01859
 Alpha virt. eigenvalues --    4.02182   4.16133   4.16678   4.17360   4.21240
 Alpha virt. eigenvalues --    4.22396   4.22517   4.25488   4.38492   4.62290
 Alpha virt. eigenvalues --    4.79179   4.79740   4.80562   4.82562   4.83014
 Alpha virt. eigenvalues --   23.39176  23.54541  23.69085  23.77378  23.80419
 Alpha virt. eigenvalues --   23.81537  23.86099  23.89067  23.89154  23.92210
 Alpha virt. eigenvalues --   23.97563  23.98365  24.09049  24.09932  24.10529
 Alpha virt. eigenvalues --   24.12220  24.13779  24.14375  24.15775  24.15810
 Alpha virt. eigenvalues --   24.20452  24.20497
          Condensed to atoms (all electrons):
 Mulliken charges:
               1
     1  C    0.000000
     2  C    0.000000
     3  C    0.000000
     4  C    0.000000
     5  C    0.000000
     6  C    0.000000
     7  C    0.000000
     8  C    0.000000
     9  C    0.000000
    10  C    0.000000
    11  H    0.000000
    12  H    0.000000
    13  H    0.000000
    14  H    0.000000
    15  H    0.000000
    16  H    0.000000
    17  C    0.000000
    18  C    0.000000
    19  C    0.000000
    20  C    0.000000
    21  H    0.000000
    22  H    0.000000
    23  C    0.000000
    24  C    0.000000
    25  C    0.000000
    26  C    0.000000
    27  H    0.000000
    28  H    0.000000
    29  C    0.000000
    30  C    0.000000
    31  C    0.000000
    32  C    0.000000
    33  H    0.000000
    34  H    0.000000
    35  H    0.000000
    36  H    0.000000
    37  C   -0.059168
    38  C   -0.059168
    39  C   -0.055977
    40  C   -0.055977
    41  C   -0.092198
    42  C   -0.092198
    43  C   -0.016525
    44  C   -0.054498
    45  C   -0.016525
    46  C   -0.054498
    47  H    0.082122
    48  H    0.074853
    49  H    0.074853
    50  H    0.082122
    51  H    0.094847
    52  H    0.094847
    53  C   -0.020341
    54  C   -0.054498
    55  C   -0.020341
    56  C   -0.054498
    57  H    0.073428
    58  H    0.073428
    59  C   -0.016525
    60  C   -0.059168
    61  C   -0.016525
    62  C   -0.059168
    63  H    0.074853
    64  H    0.074853
    65  C   -0.055977
    66  C   -0.092198
    67  C   -0.055977
    68  C   -0.092198
    69  H    0.082122
    70  H    0.094847
    71  H    0.094847
    72  H    0.082122
 Sum of Mulliken charges =   0.00000
 Mulliken charges with hydrogens summed into heavy atoms:
               1
     1  C    0.000000
     2  C    0.000000
     3  C    0.000000
     4  C    0.000000
     5  C    0.000000
     6  C    0.000000
     7  C    0.000000
     8  C    0.000000
     9  C    0.000000
    10  C    0.000000
    17  C    0.000000
    18  C    0.000000
    19  C    0.000000
    20  C    0.000000
    23  C    0.000000
    24  C    0.000000
    25  C    0.000000
    26  C    0.000000
    29  C    0.000000
    30  C    0.000000
    31  C    0.000000
    32  C    0.000000
    37  C   -0.059168
    38  C   -0.059168
    39  C    0.026144
    40  C    0.026144
    41  C    0.002649
    42  C    0.002649
    43  C    0.058328
    44  C   -0.054498
    45  C    0.058328
    46  C   -0.054498
    53  C    0.053087
    54  C   -0.054498
    55  C    0.053087
    56  C   -0.054498
    59  C    0.058328
    60  C   -0.059168
    61  C    0.058328
    62  C   -0.059168
    65  C    0.026144
    66  C    0.002649
    67  C    0.026144
    68  C    0.002649
         Mulliken charges condensed to fragments:
      1      0.000000
      2      0.000000
 Electronic spatial extent (au):  <R**2>=          15685.0348
 Charge=              0.0000 electrons
 Dipole moment (field-independent basis, Debye):
    X=              0.0000    Y=              0.0000    Z=              0.0000  Tot=              0.0000
 Quadrupole moment (field-independent basis, Debye-Ang):
   XX=           -136.3921   YY=           -110.7480   ZZ=           -109.0115
   XY=              0.0000   XZ=              0.0000   YZ=              0.0000
 Traceless Quadrupole moment (field-independent basis, Debye-Ang):
   XX=            -17.6749   YY=              7.9692   ZZ=              9.7057
   XY=              0.0000   XZ=              0.0000   YZ=              0.0000
 Octapole moment (field-independent basis, Debye-Ang**2):
  XXX=           1012.6594  YYY=            822.2622  ZZZ=              0.0000  XYY=            274.0874
  XXY=            337.5531  XXZ=              0.0000  XZZ=            269.7896  YZZ=            269.7896
  YYZ=              0.0000  XYZ=              0.0000
 Hexadecapole moment (field-independent basis, Debye-Ang**3):
 XXXX=          -5166.8121 YYYY=          -5186.7070 ZZZZ=         -10461.4324 XXXY=          -2506.2041
 XXXZ=              0.0000 YYYX=          -2034.9951 YYYZ=              0.0000 ZZZX=              0.0000
 ZZZY=              0.0000 XXYY=          -1770.1484 XXZZ=          -2875.6273 YYZZ=          -2636.9097
 XXYZ=              0.0000 YYXZ=              0.0000 ZZXY=           -667.6953
 N-N= 1.494327112715D+03 E-N=-4.953709177005D+03  KE= 8.433374905337D+02
 Symmetry A'   KE= 4.567052305547D+02
 Symmetry A"   KE= 3.866322599790D+02
 No NMR shielding tensors so no spin-rotation constants.
 Leave Link  601 at Wed Sep 27 16:57:36 2023, MaxMem=  3221225472 cpu:              19.6 elap:               0.5
 (Enter /home/center/opt/aarch64/apps/gaussian16/c01/g16/l122.exe)
 CPIOFr:  IOpCl= 0 IRwI=-1 IRwCP=  731 ICalc=  4 LCPTot=     1419224 Len1MO=     3708034 IndFrg=    19959394
 Restoring MOs from calculation   1 to rwf.
 CPIOFr:  IOpCl= 0 IRwI=-2 IRwCP=  731 ICalc=  0 LCPTot=     1419224 Len1MO=     3708034 IndFrg=     5127258
 Counterpoise corrected energy =   -1694.043225467198
                   BSSE energy =       0.000263417984
              sum of fragments =   -1694.039683044255
           complexation energy =      -2.39 kcal/mole (raw)
           complexation energy =      -2.22 kcal/mole (corrected)
 Leave Link  122 at Wed Sep 27 16:57:38 2023, MaxMem=  3221225472 cpu:               8.3 elap:               0.4
 (Enter /home/center/opt/aarch64/apps/gaussian16/c01/g16/l9999.exe)

 Test job not archived.
 1\1\GINC-FX0537\SP\RB3LYP\6-311G(d,p)\C44H28\Z40145W\27-Sep-2023\0\\#P
  TEST b3lyp/6-311G** EmpiricalDispersion=GD3 counterpoise=2\\pentacene
 _A1=0_A2=0_A3=45_p2\\0,1\C,0,-0.5039478476,0.5239478476,-3.6612755801\
 C,0,0.5239480325,-0.5039480325,-3.6612755629\C,0,-0.9861248463,1.00612
 48463,-4.9235927708\C,0,1.0061250889,-0.9861250889,-4.9235926697\C,0,-
 0.4963213507,0.5163213507,-6.096356521\C,0,0.5163216812,-0.4963216812,
 -6.0963564796\C,0,-0.9844684311,1.0044684311,-2.4533174875\C,0,-0.5044
 88426,0.524488426,-1.2140288145\C,0,1.0044685359,-0.9844685359,-2.4533
 173917\C,0,0.5244885437,-0.5044885437,-1.2140288362\H,0,-1.7533559667,
 1.7733559667,-4.9232600459\H,0,-1.7521866813,1.7721866813,-2.453928581
 5\H,0,1.7721859268,-1.7521859268,-2.4539284818\H,0,1.7733558421,-1.753
 3558421,-4.9232597785\H,0,0.8905568758,-0.8705568758,-7.0425276922\H,0
 ,-0.8705565046,0.8905565046,-7.042527775\C,0,-0.9848184961,1.004818496
 1,0.0099998782\C,0,-0.5044883957,0.5244883957,1.2340295553\C,0,1.00481
 85643,-0.9848185643,0.0099998696\C,0,0.5244885146,-0.5044885146,1.2340
 295261\H,0,-1.7524699697,1.7724699697,0.0099999205\H,0,1.772468921,-1.
 752468921,0.0099999641\C,0,-0.9844683048,1.0044683048,2.4733171385\C,0
 ,-0.5039477114,0.5239477114,3.681276331\C,0,1.0044684211,-0.9844684211
 ,2.4733170835\C,0,0.5239479079,-0.5039479079,3.6812763217\H,0,-1.75218
 65527,1.7721865527,2.4739285326\H,0,1.7721858092,-1.7521858092,2.47392
 83796\C,0,-0.9861245177,1.0061245177,4.9435920588\C,0,-0.4963209372,0.
 5163209372,6.116356633\C,0,1.0061247659,-0.9861247659,4.9435919377\C,0
 ,0.5163212637,-0.4963212637,6.1163566075\H,0,-1.7533556504,1.773355650
 4,4.9432601504\H,0,-0.8705567426,0.8905567426,7.0625274368\H,0,0.89055
 70967,-0.8705570967,7.0625272142\H,0,1.7733555414,-1.7533555414,4.9432
 599297\C,0,6.4960521524,0.5239478476,-3.6612755801\C,0,7.5239480325,-0
 .5039480325,-3.6612755629\C,0,6.0138751537,1.0061248463,-4.9235927708\
 C,0,8.0061250889,-0.9861250889,-4.9235926697\C,0,6.5036786493,0.516321
 3507,-6.096356521\C,0,7.5163216812,-0.4963216812,-6.0963564796\C,0,6.0
 155315689,1.0044684311,-2.4533174875\C,0,6.495511574,0.524488426,-1.21
 40288145\C,0,8.0044685359,-0.9844685359,-2.4533173917\C,0,7.5244885437
 ,-0.5044885437,-1.2140288362\H,0,5.2466440333,1.7733559667,-4.92326004
 59\H,0,5.2478133187,1.7721866813,-2.4539285815\H,0,8.7721859268,-1.752
 1859268,-2.4539284818\H,0,8.7733558421,-1.7533558421,-4.9232597785\H,0
 ,7.8905568758,-0.8705568758,-7.0425276922\H,0,6.1294434954,0.890556504
 6,-7.042527775\C,0,6.0151815039,1.0048184961,0.0099998782\C,0,6.495511
 6043,0.5244883957,1.2340295553\C,0,8.0048185643,-0.9848185643,0.009999
 8696\C,0,7.5244885146,-0.5044885146,1.2340295261\H,0,5.2475300303,1.77
 24699697,0.0099999205\H,0,8.772468921,-1.752468921,0.0099999641\C,0,6.
 0155316952,1.0044683048,2.4733171385\C,0,6.4960522886,0.5239477114,3.6
 81276331\C,0,8.0044684211,-0.9844684211,2.4733170835\C,0,7.5239479079,
 -0.5039479079,3.6812763217\H,0,5.2478134473,1.7721865527,2.4739285326\
 H,0,8.7721858092,-1.7521858092,2.4739283796\C,0,6.0138754823,1.0061245
 177,4.9435920588\C,0,6.5036790628,0.5163209372,6.116356633\C,0,8.00612
 47659,-0.9861247659,4.9435919377\C,0,7.5163212637,-0.4963212637,6.1163
 566075\H,0,5.2466443496,1.7733556504,4.9432601504\H,0,6.1294432574,0.8
 905567426,7.0625274368\H,0,7.8905570967,-0.8705570967,7.0625272142\H,0
 ,8.7733555414,-1.7533555414,4.9432599297\\Version=Fujitsu-Arm-G16RevC.
 01\State=1-A'\HF=-847.0198415\RMSD=3.180e-09\Dipole=-0.0000007,0.00000
 08,0.\Quadrupole=-8.0935271,-6.2206603,14.3141874,-18.1106223,0.,0.\PG
 =CS [SG(C4H4),X(C40H24)]\\@


 THE CAUTIOUS SELDOM ERR...CONFUCIUS                   
 Job cpu time:       0 days  2 hours 59 minutes 40.5 seconds.
 Elapsed time:       0 days  0 hours  4 minutes 43.7 seconds.
 File lengths (MBytes):  RWF=    718 Int=      0 D2E=      0 Chk=    208 Scr=      1
 Normal termination of Gaussian 16 at Wed Sep 27 16:57:44 2023.
