 Entering Gaussian System, Link 0=g16
 Initial command:
 /home/center/opt/aarch64/apps/gaussian16/c01/g16/l1.exe "/data/tmp/Gtmp/1006949/Gau-49.inp" -scrdir="/data/tmp/Gtmp/1006949/"
 Entering Link 1 = /home/center/opt/aarch64/apps/gaussian16/c01/g16/l1.exe PID=        50.
  
 Copyright (c) 1988-2019, Gaussian, Inc.  All Rights Reserved.
  
 This is part of the Gaussian(R) 16 program.  It is based on
 the Gaussian(R) 09 system (copyright 2009, Gaussian, Inc.),
 the Gaussian(R) 03 system (copyright 2003, Gaussian, Inc.),
 the Gaussian(R) 98 system (copyright 1998, Gaussian, Inc.),
 the Gaussian(R) 94 system (copyright 1995, Gaussian, Inc.),
 the Gaussian 92(TM) system (copyright 1992, Gaussian, Inc.),
 the Gaussian 90(TM) system (copyright 1990, Gaussian, Inc.),
 the Gaussian 88(TM) system (copyright 1988, Gaussian, Inc.),
 the Gaussian 86(TM) system (copyright 1986, Carnegie Mellon
 University), and the Gaussian 82(TM) system (copyright 1983,
 Carnegie Mellon University). Gaussian is a federally registered
 trademark of Gaussian, Inc.
  
 This software contains proprietary and confidential information,
 including trade secrets, belonging to Gaussian, Inc.
  
 This software is provided under written license and may be
 used, copied, transmitted, or stored only in accord with that
 written license.
  
 The following legend is applicable only to US Government
 contracts under FAR:
  
                    RESTRICTED RIGHTS LEGEND
  
 Use, reproduction and disclosure by the US Government is
 subject to restrictions as set forth in subparagraphs (a)
 and (c) of the Commercial Computer Software - Restricted
 Rights clause in FAR 52.227-19.
  
 Gaussian, Inc.
 340 Quinnipiac St., Bldg. 40, Wallingford CT 06492
  
  
 ---------------------------------------------------------------
 Warning -- This program may not be used in any manner that
 competes with the business of Gaussian, Inc. or will provide
 assistance to any competitor of Gaussian, Inc.  The licensee
 of this program is prohibited from giving any competitor of
 Gaussian, Inc. access to this program.  By using this program,
 the user acknowledges that Gaussian, Inc. is engaged in the
 business of creating and licensing software in the field of
 computational chemistry and represents and warrants to the
 licensee that it is not a competitor of Gaussian, Inc. and that
 it will not use this program in any manner prohibited above.
 ---------------------------------------------------------------
  

 Cite this work as:
 Gaussian 16, Revision C.01,
 M. J. Frisch, G. W. Trucks, H. B. Schlegel, G. E. Scuseria, 
 M. A. Robb, J. R. Cheeseman, G. Scalmani, V. Barone, 
 G. A. Petersson, H. Nakatsuji, X. Li, M. Caricato, A. V. Marenich, 
 J. Bloino, B. G. Janesko, R. Gomperts, B. Mennucci, H. P. Hratchian, 
 J. V. Ortiz, A. F. Izmaylov, J. L. Sonnenberg, D. Williams-Young, 
 F. Ding, F. Lipparini, F. Egidi, J. Goings, B. Peng, A. Petrone, 
 T. Henderson, D. Ranasinghe, V. G. Zakrzewski, J. Gao, N. Rega, 
 G. Zheng, W. Liang, M. Hada, M. Ehara, K. Toyota, R. Fukuda, 
 J. Hasegawa, M. Ishida, T. Nakajima, Y. Honda, O. Kitao, H. Nakai, 
 T. Vreven, K. Throssell, J. A. Montgomery, Jr., J. E. Peralta, 
 F. Ogliaro, M. J. Bearpark, J. J. Heyd, E. N. Brothers, K. N. Kudin, 
 V. N. Staroverov, T. A. Keith, R. Kobayashi, J. Normand, 
 K. Raghavachari, A. P. Rendell, J. C. Burant, S. S. Iyengar, 
 J. Tomasi, M. Cossi, J. M. Millam, M. Klene, C. Adamo, R. Cammi, 
 J. W. Ochterski, R. L. Martin, K. Morokuma, O. Farkas, 
 J. B. Foresman, and D. J. Fox, Gaussian, Inc., Wallingford CT, 2019.
 
 ************************************************
 Gaussian 16:  Fujitsu-Arm-G16RevC.01  3-Jul-2019
                   27-Sep-2023 
 ************************************************
 %mem=24GB
 %nproc=42
 Will use up to   42 processors via shared memory.
 -------------------------------------------------------------
 #P TEST b3lyp/6-311G** EmpiricalDispersion=GD3 counterpoise=2
 -------------------------------------------------------------
 1/38=1,62=2,172=1/1;
 2/12=2,17=6,18=5,40=1/2;
 1/38=1,53=2,62=2,63=1/22;
 3/5=4,6=6,7=101,11=2,25=1,30=1,74=-5,124=31/1,2,3;
 4//1;
 5/5=2,38=5/2;
 6/7=2,8=2,9=2,10=2,28=1/1;
 1/53=2,62=2,63=1/22;
 3/5=7,6=11,7=101,11=2,25=1,30=1,74=-5,82=7,124=31/1,2,3;
 4//1;
 5/5=2,38=5/2;
 6/7=2,8=2,9=2,10=2,28=1/1;
 1/53=2,62=2,63=1/22(-4);
 99/5=1,9=1/99;
 Leave Link    1 at Wed Sep 27 16:37:42 2023, MaxMem=  3221225472 cpu:               2.7 elap:               0.2
 (Enter /home/center/opt/aarch64/apps/gaussian16/c01/g16/l101.exe)
 ----------------------------
 pentacene_A1=0_A2=0_A3=45_t1
 ----------------------------
 Symbolic Z-matrix:
 Charge =  0 Multiplicity = 1 in supermolecule
 Charge =  0 Multiplicity = 1 in fragment      1.
 Charge =  0 Multiplicity = 1 in fragment      2.
 C(Fragment=1)        -0.50395   0.52395  -3.66128 
 C(Fragment=1)         0.52395  -0.50395  -3.66128 
 C(Fragment=1)        -0.98612   1.00612  -4.92359 
 C(Fragment=1)         1.00613  -0.98613  -4.92359 
 C(Fragment=1)        -0.49632   0.51632  -6.09636 
 C(Fragment=1)         0.51632  -0.49632  -6.09636 
 C(Fragment=1)        -0.98447   1.00447  -2.45332 
 C(Fragment=1)        -0.50449   0.52449  -1.21403 
 C(Fragment=1)         1.00447  -0.98447  -2.45332 
 C(Fragment=1)         0.52449  -0.50449  -1.21403 
 H(Fragment=1)        -1.75336   1.77336  -4.92326 
 H(Fragment=1)        -1.75219   1.77219  -2.45393 
 H(Fragment=1)         1.77219  -1.75219  -2.45393 
 H(Fragment=1)         1.77336  -1.75336  -4.92326 
 H(Fragment=1)         0.89056  -0.87056  -7.04253 
 H(Fragment=1)        -0.87056   0.89056  -7.04253 
 C(Fragment=1)        -0.98482   1.00482   0.01 
 C(Fragment=1)        -0.50449   0.52449   1.23403 
 C(Fragment=1)         1.00482  -0.98482   0.01 
 C(Fragment=1)         0.52449  -0.50449   1.23403 
 H(Fragment=1)        -1.75247   1.77247   0.01 
 H(Fragment=1)         1.77247  -1.75247   0.01 
 C(Fragment=1)        -0.98447   1.00447   2.47332 
 C(Fragment=1)        -0.50395   0.52395   3.68128 
 C(Fragment=1)         1.00447  -0.98447   2.47332 
 C(Fragment=1)         0.52395  -0.50395   3.68128 
 H(Fragment=1)        -1.75219   1.77219   2.47393 
 H(Fragment=1)         1.77219  -1.75219   2.47393 
 C(Fragment=1)        -0.98612   1.00612   4.94359 
 C(Fragment=1)        -0.49632   0.51632   6.11636 
 C(Fragment=1)         1.00612  -0.98612   4.94359 
 C(Fragment=1)         0.51632  -0.49632   6.11636 
 H(Fragment=1)        -1.75336   1.77336   4.94326 
 H(Fragment=1)        -0.87056   0.89056   7.06253 
 H(Fragment=1)         0.89056  -0.87056   7.06253 
 H(Fragment=1)         1.77336  -1.75336   4.94326 
 C(Fragment=2)         3.77395   4.27395  -3.66128 
 C(Fragment=2)         2.74605   3.24605  -3.66128 
 C(Fragment=2)         4.25612   4.75612  -4.92359 
 C(Fragment=2)         2.26387   2.76387  -4.92359 
 C(Fragment=2)         3.76632   4.26632  -6.09636 
 C(Fragment=2)         2.75368   3.25368  -6.09636 
 C(Fragment=2)         4.25447   4.75447  -2.45332 
 C(Fragment=2)         3.77449   4.27449  -1.21403 
 C(Fragment=2)         2.26553   2.76553  -2.45332 
 C(Fragment=2)         2.74551   3.24551  -1.21403 
 H(Fragment=2)         5.02336   5.52336  -4.92326 
 H(Fragment=2)         5.02219   5.52219  -2.45393 
 H(Fragment=2)         1.49781   1.99781  -2.45393 
 H(Fragment=2)         1.49664   1.99664  -4.92326 
 H(Fragment=2)         2.37944   2.87944  -7.04253 
 H(Fragment=2)         4.14056   4.64056  -7.04253 
 C(Fragment=2)         4.25482   4.75482   0.01 
 C(Fragment=2)         3.77449   4.27449   1.23403 
 C(Fragment=2)         2.26518   2.76518   0.01 
 C(Fragment=2)         2.74551   3.24551   1.23403 
 H(Fragment=2)         5.02247   5.52247   0.01 
 H(Fragment=2)         1.49753   1.99753   0.01 
 C(Fragment=2)         4.25447   4.75447   2.47332 
 C(Fragment=2)         3.77395   4.27395   3.68128 
 C(Fragment=2)         2.26553   2.76553   2.47332 
 C(Fragment=2)         2.74605   3.24605   3.68128 
 H(Fragment=2)         5.02219   5.52219   2.47393 
 H(Fragment=2)         1.49781   1.99781   2.47393 
 C(Fragment=2)         4.25612   4.75612   4.94359 
 C(Fragment=2)         3.76632   4.26632   6.11636 
 C(Fragment=2)         2.26388   2.76388   4.94359 
 C(Fragment=2)         2.75368   3.25368   6.11636 
 H(Fragment=2)         5.02336   5.52336   4.94326 
 H(Fragment=2)         4.14056   4.64056   7.06253 
 H(Fragment=2)         2.37944   2.87944   7.06253 
 H(Fragment=2)         1.49664   1.99664   4.94326 
 
 ITRead=  0  0  0  0  0  0  0  0  0  0  0  0  0  0  0  0  0  0  0  0
 ITRead=  0  0  0  0  0  0  0  0  0  0  0  0  0  0  0  0  0  0  0  0
 ITRead=  0  0  0  0  0  0  0  0  0  0  0  0  0  0  0  0  0  0  0  0
 ITRead=  0  0  0  0  0  0  0  0  0  0  0  0
 MicOpt= -1 -1 -1 -1 -1 -1 -1 -1 -1 -1 -1 -1 -1 -1 -1 -1 -1 -1 -1 -1
 MicOpt= -1 -1 -1 -1 -1 -1 -1 -1 -1 -1 -1 -1 -1 -1 -1 -1 -1 -1 -1 -1
 MicOpt= -1 -1 -1 -1 -1 -1 -1 -1 -1 -1 -1 -1 -1 -1 -1 -1 -1 -1 -1 -1
 MicOpt= -1 -1 -1 -1 -1 -1 -1 -1 -1 -1 -1 -1
 NAtoms=     72 NQM=       72 NQMF=       0 NMMI=      0 NMMIF=      0
                NMic=       0 NMicF=      0.
                    Isotopes and Nuclear Properties:
 (Nuclear quadrupole moments (NQMom) in fm**2, nuclear magnetic moments (NMagM)
  in nuclear magnetons)

  Atom         1           2           3           4           5           6           7           8           9          10
 IAtWgt=          12          12          12          12          12          12          12          12          12          12
 AtmWgt=  12.0000000  12.0000000  12.0000000  12.0000000  12.0000000  12.0000000  12.0000000  12.0000000  12.0000000  12.0000000
 NucSpn=           0           0           0           0           0           0           0           0           0           0
 AtZEff=   0.0000000   0.0000000   0.0000000   0.0000000   0.0000000   0.0000000   0.0000000   0.0000000   0.0000000   0.0000000
 NQMom=    0.0000000   0.0000000   0.0000000   0.0000000   0.0000000   0.0000000   0.0000000   0.0000000   0.0000000   0.0000000
 NMagM=    0.0000000   0.0000000   0.0000000   0.0000000   0.0000000   0.0000000   0.0000000   0.0000000   0.0000000   0.0000000
 AtZNuc=   6.0000000   6.0000000   6.0000000   6.0000000   6.0000000   6.0000000   6.0000000   6.0000000   6.0000000   6.0000000

  Atom        11          12          13          14          15          16          17          18          19          20
 IAtWgt=           1           1           1           1           1           1          12          12          12          12
 AtmWgt=   1.0078250   1.0078250   1.0078250   1.0078250   1.0078250   1.0078250  12.0000000  12.0000000  12.0000000  12.0000000
 NucSpn=           1           1           1           1           1           1           0           0           0           0
 AtZEff=   0.0000000   0.0000000   0.0000000   0.0000000   0.0000000   0.0000000   0.0000000   0.0000000   0.0000000   0.0000000
 NQMom=    0.0000000   0.0000000   0.0000000   0.0000000   0.0000000   0.0000000   0.0000000   0.0000000   0.0000000   0.0000000
 NMagM=    2.7928460   2.7928460   2.7928460   2.7928460   2.7928460   2.7928460   0.0000000   0.0000000   0.0000000   0.0000000
 AtZNuc=   1.0000000   1.0000000   1.0000000   1.0000000   1.0000000   1.0000000   6.0000000   6.0000000   6.0000000   6.0000000

  Atom        21          22          23          24          25          26          27          28          29          30
 IAtWgt=           1           1          12          12          12          12           1           1          12          12
 AtmWgt=   1.0078250   1.0078250  12.0000000  12.0000000  12.0000000  12.0000000   1.0078250   1.0078250  12.0000000  12.0000000
 NucSpn=           1           1           0           0           0           0           1           1           0           0
 AtZEff=   0.0000000   0.0000000   0.0000000   0.0000000   0.0000000   0.0000000   0.0000000   0.0000000   0.0000000   0.0000000
 NQMom=    0.0000000   0.0000000   0.0000000   0.0000000   0.0000000   0.0000000   0.0000000   0.0000000   0.0000000   0.0000000
 NMagM=    2.7928460   2.7928460   0.0000000   0.0000000   0.0000000   0.0000000   2.7928460   2.7928460   0.0000000   0.0000000
 AtZNuc=   1.0000000   1.0000000   6.0000000   6.0000000   6.0000000   6.0000000   1.0000000   1.0000000   6.0000000   6.0000000

  Atom        31          32          33          34          35          36          37          38          39          40
 IAtWgt=          12          12           1           1           1           1          12          12          12          12
 AtmWgt=  12.0000000  12.0000000   1.0078250   1.0078250   1.0078250   1.0078250  12.0000000  12.0000000  12.0000000  12.0000000
 NucSpn=           0           0           1           1           1           1           0           0           0           0
 AtZEff=   0.0000000   0.0000000   0.0000000   0.0000000   0.0000000   0.0000000   0.0000000   0.0000000   0.0000000   0.0000000
 NQMom=    0.0000000   0.0000000   0.0000000   0.0000000   0.0000000   0.0000000   0.0000000   0.0000000   0.0000000   0.0000000
 NMagM=    0.0000000   0.0000000   2.7928460   2.7928460   2.7928460   2.7928460   0.0000000   0.0000000   0.0000000   0.0000000
 AtZNuc=   6.0000000   6.0000000   1.0000000   1.0000000   1.0000000   1.0000000   6.0000000   6.0000000   6.0000000   6.0000000

  Atom        41          42          43          44          45          46          47          48          49          50
 IAtWgt=          12          12          12          12          12          12           1           1           1           1
 AtmWgt=  12.0000000  12.0000000  12.0000000  12.0000000  12.0000000  12.0000000   1.0078250   1.0078250   1.0078250   1.0078250
 NucSpn=           0           0           0           0           0           0           1           1           1           1
 AtZEff=   0.0000000   0.0000000   0.0000000   0.0000000   0.0000000   0.0000000   0.0000000   0.0000000   0.0000000   0.0000000
 NQMom=    0.0000000   0.0000000   0.0000000   0.0000000   0.0000000   0.0000000   0.0000000   0.0000000   0.0000000   0.0000000
 NMagM=    0.0000000   0.0000000   0.0000000   0.0000000   0.0000000   0.0000000   2.7928460   2.7928460   2.7928460   2.7928460
 AtZNuc=   6.0000000   6.0000000   6.0000000   6.0000000   6.0000000   6.0000000   1.0000000   1.0000000   1.0000000   1.0000000

  Atom        51          52          53          54          55          56          57          58          59          60
 IAtWgt=           1           1          12          12          12          12           1           1          12          12
 AtmWgt=   1.0078250   1.0078250  12.0000000  12.0000000  12.0000000  12.0000000   1.0078250   1.0078250  12.0000000  12.0000000
 NucSpn=           1           1           0           0           0           0           1           1           0           0
 AtZEff=   0.0000000   0.0000000   0.0000000   0.0000000   0.0000000   0.0000000   0.0000000   0.0000000   0.0000000   0.0000000
 NQMom=    0.0000000   0.0000000   0.0000000   0.0000000   0.0000000   0.0000000   0.0000000   0.0000000   0.0000000   0.0000000
 NMagM=    2.7928460   2.7928460   0.0000000   0.0000000   0.0000000   0.0000000   2.7928460   2.7928460   0.0000000   0.0000000
 AtZNuc=   1.0000000   1.0000000   6.0000000   6.0000000   6.0000000   6.0000000   1.0000000   1.0000000   6.0000000   6.0000000

  Atom        61          62          63          64          65          66          67          68          69          70
 IAtWgt=          12          12           1           1          12          12          12          12           1           1
 AtmWgt=  12.0000000  12.0000000   1.0078250   1.0078250  12.0000000  12.0000000  12.0000000  12.0000000   1.0078250   1.0078250
 NucSpn=           0           0           1           1           0           0           0           0           1           1
 AtZEff=   0.0000000   0.0000000   0.0000000   0.0000000   0.0000000   0.0000000   0.0000000   0.0000000   0.0000000   0.0000000
 NQMom=    0.0000000   0.0000000   0.0000000   0.0000000   0.0000000   0.0000000   0.0000000   0.0000000   0.0000000   0.0000000
 NMagM=    0.0000000   0.0000000   2.7928460   2.7928460   0.0000000   0.0000000   0.0000000   0.0000000   2.7928460   2.7928460
 AtZNuc=   6.0000000   6.0000000   1.0000000   1.0000000   6.0000000   6.0000000   6.0000000   6.0000000   1.0000000   1.0000000

  Atom        71          72
 IAtWgt=           1           1
 AtmWgt=   1.0078250   1.0078250
 NucSpn=           1           1
 AtZEff=   0.0000000   0.0000000
 NQMom=    0.0000000   0.0000000
 NMagM=    2.7928460   2.7928460
 AtZNuc=   1.0000000   1.0000000
 Leave Link  101 at Wed Sep 27 16:37:44 2023, MaxMem=  3221225472 cpu:               2.5 elap:               0.1
 (Enter /home/center/opt/aarch64/apps/gaussian16/c01/g16/l202.exe)
 Stoichiometry    C44H28
 Framework group  CS[SG(C4H4),X(C40H24)]
 Deg. of freedom   109
 Full point group                 CS      NOp   2
 Largest Abelian subgroup         CS      NOp   2
 Largest concise Abelian subgroup CS      NOp   2
                         Standard orientation:                         
 ---------------------------------------------------------------------
 Center     Atomic      Atomic             Coordinates (Angstroms)
 Number     Number       Type             X           Y           Z
 ---------------------------------------------------------------------
      1          6           0        0.550055   -2.474874    3.671276
      2          6           0       -0.903609   -2.474874    3.671276
      3          6           0        1.231957   -2.474874    4.933593
      4          6           0       -1.585510   -2.474874    4.933593
      5          6           0        0.539270   -2.474874    6.106357
      6          6           0       -0.892824   -2.474874    6.106357
      7          6           0        1.229614   -2.474874    2.463318
      8          6           0        0.550820   -2.474874    1.224029
      9          6           0       -1.583168   -2.474874    2.463317
     10          6           0       -0.904373   -2.474874    1.224029
     11          1           0        2.316985   -2.474874    4.933260
     12          1           0        2.315332   -2.474874    2.463929
     13          1           0       -2.668884   -2.474874    2.463929
     14          1           0       -2.670538   -2.474874    4.933260
     15          1           0       -1.422072   -2.474874    7.052528
     16          1           0        1.068518   -2.474874    7.052528
     17          6           0        1.230109   -2.474874    0.000000
     18          6           0        0.550820   -2.474874   -1.224029
     19          6           0       -1.583663   -2.474874    0.000000
     20          6           0       -0.904373   -2.474874   -1.224029
     21          1           0        2.315732   -2.474874    0.000000
     22          1           0       -2.669284   -2.474874    0.000000
     23          6           0        1.229614   -2.474874   -2.463318
     24          6           0        0.550055   -2.474874   -3.671276
     25          6           0       -1.583168   -2.474874   -2.463317
     26          6           0       -0.903609   -2.474874   -3.671276
     27          1           0        2.315332   -2.474874   -2.463929
     28          1           0       -2.668884   -2.474874   -2.463929
     29          6           0        1.231957   -2.474874   -4.933593
     30          6           0        0.539270   -2.474874   -6.106357
     31          6           0       -1.585510   -2.474874   -4.933593
     32          6           0       -0.892824   -2.474874   -6.106357
     33          1           0        2.316985   -2.474874   -4.933260
     34          1           0        1.068518   -2.474874   -7.052528
     35          1           0       -1.422072   -2.474874   -7.052528
     36          1           0       -2.670538   -2.474874   -4.933260
     37          6           0        0.176777    3.201706    3.671276
     38          6           0        0.176777    1.748042    3.671276
     39          6           0        0.176777    3.883607    4.933593
     40          6           0        0.176777    1.066140    4.933593
     41          6           0        0.176777    3.190920    6.106357
     42          6           0        0.176777    1.758827    6.106357
     43          6           0        0.176777    3.881265    2.463318
     44          6           0        0.176777    3.202470    1.224029
     45          6           0        0.176777    1.068483    2.463317
     46          6           0        0.176777    1.747277    1.224029
     47          1           0        0.176777    4.968636    4.933260
     48          1           0        0.176777    4.966982    2.463929
     49          1           0        0.176777   -0.017233    2.463929
     50          1           0        0.176777   -0.018888    4.933260
     51          1           0        0.176777    1.229578    7.052528
     52          1           0        0.176777    3.720169    7.052528
     53          6           0        0.176777    3.881760    0.000000
     54          6           0        0.176777    3.202470   -1.224029
     55          6           0        0.176777    1.067988    0.000000
     56          6           0        0.176777    1.747277   -1.224029
     57          1           0        0.176777    4.967383    0.000000
     58          1           0        0.176777   -0.017634    0.000000
     59          6           0        0.176777    3.881265   -2.463318
     60          6           0        0.176777    3.201706   -3.671276
     61          6           0        0.176777    1.068483   -2.463317
     62          6           0        0.176777    1.748042   -3.671276
     63          1           0        0.176777    4.966982   -2.463929
     64          1           0        0.176777   -0.017233   -2.463929
     65          6           0        0.176777    3.883607   -4.933593
     66          6           0        0.176777    3.190920   -6.106357
     67          6           0        0.176777    1.066140   -4.933593
     68          6           0        0.176777    1.758827   -6.106357
     69          1           0        0.176777    4.968636   -4.933260
     70          1           0        0.176777    3.720169   -7.052528
     71          1           0        0.176777    1.229578   -7.052528
     72          1           0        0.176777   -0.018888   -4.933260
 ---------------------------------------------------------------------
 Rotational constants (GHZ):           0.1206688           0.0563744           0.0407928
 Leave Link  202 at Wed Sep 27 16:37:46 2023, MaxMem=  3221225472 cpu:               0.8 elap:               0.1
 (Enter /home/center/opt/aarch64/apps/gaussian16/c01/g16/l122.exe)
 Counterpoise: doing full-system calculation.
 Leave Link  122 at Wed Sep 27 16:37:48 2023, MaxMem=  3221225472 cpu:               0.1 elap:               0.0
 (Enter /home/center/opt/aarch64/apps/gaussian16/c01/g16/l301.exe)
 Standard basis: 6-311G(d,p) (5D, 7F)
 Ernie: Thresh=  0.10000D-02 Tol=  0.10000D-05 Strict=F.
 There are   528 symmetry adapted cartesian basis functions of A'  symmetry.
 There are   476 symmetry adapted cartesian basis functions of A"  symmetry.
 There are   504 symmetry adapted basis functions of A'  symmetry.
 There are   456 symmetry adapted basis functions of A"  symmetry.
   960 basis functions,  1632 primitive gaussians,  1004 cartesian basis functions
   146 alpha electrons      146 beta electrons
       nuclear repulsion energy      4705.9877789079 Hartrees.
 IExCor=  402 DFT=T Ex+Corr=B3LYP ExCW=0 ScaHFX=  0.200000
 ScaDFX=  0.800000  0.720000  1.000000  0.810000 ScalE2=  1.000000  1.000000
 IRadAn=      5 IRanWt=     -1 IRanGd=            0 ICorTp=0 IEmpDi=131
 NAtoms=   72 NActive=   72 NUniq=   40 SFac= 3.24D+00 NAtFMM=   60 NAOKFM=T Big=F
 Integral buffers will be    131072 words long.
 Raffenetti 2 integral format.
 Two-electron integral symmetry is turned on.
 R6Disp:  Grimme-D3 Dispersion energy=       -0.0887730591 Hartrees.
 Nuclear repulsion after empirical dispersion term =     4705.8990058487 Hartrees.
 Leave Link  301 at Wed Sep 27 16:37:51 2023, MaxMem=  3221225472 cpu:               1.9 elap:               0.1
 (Enter /home/center/opt/aarch64/apps/gaussian16/c01/g16/l302.exe)
 NPDir=0 NMtPBC=     1 NCelOv=     1 NCel=       1 NClECP=     1 NCelD=      1
         NCelK=      1 NCelE2=     1 NClLst=     1 CellRange=     0.0.
 One-electron integrals computed using PRISM.
 One-electron integral symmetry used in STVInt
 NBasis=   960 RedAO= T EigKep=  3.73D-05  NBF=   504   456
 NBsUse=   960 1.00D-06 EigRej= -1.00D+00 NBFU=   504   456
 Precomputing XC quadrature grid using
 IXCGrd= 4 IRadAn=           5 IRanWt=          -1 IRanGd=           0 AccXCQ= 0.00D+00.
 Generated NRdTot=       0 NPtTot=           0 NUsed=           0 NTot=          32
 NSgBfM=   991   991   991   991   991 MxSgAt=    72 MxSgA2=    72.
 Leave Link  302 at Wed Sep 27 16:37:55 2023, MaxMem=  3221225472 cpu:              55.4 elap:               2.0
 (Enter /home/center/opt/aarch64/apps/gaussian16/c01/g16/l303.exe)
 DipDrv:  MaxL=1.
 Leave Link  303 at Wed Sep 27 16:37:58 2023, MaxMem=  3221225472 cpu:              13.7 elap:               0.4
 (Enter /home/center/opt/aarch64/apps/gaussian16/c01/g16/l401.exe)
 ExpMin= 1.03D-01 ExpMax= 4.56D+03 ExpMxC= 6.82D+02 IAcc=3 IRadAn=         5 AccDes= 0.00D+00
 Harris functional with IExCor=  402 and IRadAn=       5 diagonalized for initial guess.
 HarFok:  IExCor=  402 AccDes= 0.00D+00 IRadAn=         5 IDoV= 1 UseB2=F ITyADJ=14
 ICtDFT=  3500011 ScaDFX=  1.000000  1.000000  1.000000  1.000000
 FoFCou: FMM=F IPFlag=           0 FMFlag=      100000 FMFlg1=        2000
         NFxFlg=           0 DoJE=T BraDBF=F KetDBF=T FulRan=T
         wScrn=  0.000000 ICntrl=       500 IOpCl=  0 I1Cent=   200000004 NGrid=           0
         NMat0=    1 NMatS0=      1 NMatT0=    0 NMatD0=    1 NMtDS0=    0 NMtDT0=    0
 Petite list used in FoFCou.
 Harris En= -1694.13803209785    
 JPrj=0 DoOrth=F DoCkMO=F.
 Initial guess orbital symmetries:
       Occupied  (A") (A') (A") (A') (A") (A') (A') (A") (A") (A')
                 (A") (A') (A") (A') (A") (A') (A") (A') (A") (A')
                 (A') (A") (A') (A") (A') (A') (A') (A') (A") (A')
                 (A") (A') (A") (A') (A") (A') (A") (A') (A") (A')
                 (A") (A') (A') (A") (A') (A') (A") (A") (A') (A')
                 (A") (A") (A') (A') (A') (A') (A") (A") (A') (A')
                 (A") (A") (A") (A") (A') (A') (A') (A') (A") (A")
                 (A") (A") (A') (A') (A") (A") (A') (A') (A') (A')
                 (A') (A') (A") (A") (A") (A") (A') (A") (A") (A')
                 (A') (A') (A") (A") (A') (A') (A') (A') (A") (A")
                 (A') (A') (A") (A") (A") (A") (A') (A') (A') (A')
                 (A") (A") (A') (A') (A") (A") (A') (A') (A") (A")
                 (A") (A') (A") (A') (A') (A') (A") (A") (A') (A')
                 (A") (A") (A') (A') (A") (A") (A') (A') (A') (A')
                 (A") (A") (A") (A") (A') (A')
       Virtual   (A') (A') (A") (A") (A") (A") (A') (A') (A') (A')
                 (A") (A") (A') (A') (A") (A") (A') (A") (A') (A')
                 (A') (A') (A") (A') (A') (A") (A") (A') (A") (A')
                 (A") (A") (A') (A") (A') (A") (A') (A") (A') (A")
                 (A') (A') (A') (A") (A") (A') (A") (A') (A') (A')
                 (A') (A") (A') (A") (A') (A') (A") (A") (A') (A')
                 (A") (A") (A") (A") (A') (A') (A") (A') (A") (A")
                 (A') (A") (A') (A') (A") (A') (A") (A") (A') (A")
                 (A') (A') (A') (A") (A') (A") (A') (A") (A') (A')
                 (A") (A') (A') (A") (A") (A") (A') (A") (A') (A")
                 (A') (A') (A') (A") (A") (A') (A") (A") (A') (A')
                 (A') (A") (A') (A") (A') (A') (A") (A") (A') (A')
                 (A") (A') (A") (A") (A') (A') (A") (A') (A") (A')
                 (A") (A') (A") (A') (A") (A') (A") (A") (A') (A')
                 (A") (A') (A") (A") (A') (A') (A') (A") (A') (A')
                 (A') (A') (A") (A") (A') (A") (A") (A") (A') (A")
                 (A') (A") (A') (A") (A') (A') (A") (A') (A') (A")
                 (A') (A") (A') (A') (A") (A') (A") (A') (A") (A")
                 (A') (A") (A') (A') (A") (A') (A") (A') (A") (A')
                 (A') (A") (A') (A") (A") (A') (A') (A") (A') (A")
                 (A') (A") (A") (A') (A') (A') (A") (A") (A') (A")
                 (A') (A') (A") (A') (A") (A") (A") (A') (A") (A')
                 (A") (A") (A') (A') (A') (A") (A") (A') (A') (A')
                 (A") (A') (A') (A') (A") (A') (A") (A") (A") (A')
                 (A") (A') (A") (A') (A') (A') (A") (A") (A") (A')
                 (A') (A') (A") (A") (A") (A') (A') (A") (A') (A")
                 (A') (A") (A") (A') (A") (A') (A") (A') (A") (A")
                 (A') (A") (A') (A') (A') (A") (A") (A") (A') (A')
                 (A") (A') (A') (A") (A') (A") (A") (A') (A') (A")
                 (A') (A") (A") (A') (A') (A") (A") (A") (A') (A')
                 (A") (A') (A') (A") (A') (A') (A") (A") (A') (A")
                 (A") (A') (A") (A') (A') (A") (A') (A') (A') (A")
                 (A") (A") (A') (A') (A') (A") (A") (A") (A') (A")
                 (A') (A") (A') (A") (A") (A') (A') (A') (A") (A")
                 (A') (A') (A") (A') (A') (A") (A') (A") (A") (A')
                 (A') (A") (A') (A') (A') (A") (A") (A') (A') (A")
                 (A') (A') (A") (A') (A') (A") (A") (A") (A") (A")
                 (A') (A") (A') (A") (A") (A') (A") (A') (A') (A")
                 (A') (A') (A") (A') (A') (A") (A') (A') (A') (A")
                 (A") (A') (A') (A") (A') (A") (A') (A") (A") (A')
                 (A") (A") (A') (A') (A") (A') (A") (A") (A') (A')
                 (A') (A') (A') (A") (A') (A") (A') (A") (A") (A')
                 (A') (A') (A") (A") (A') (A") (A') (A') (A") (A")
                 (A') (A") (A') (A") (A') (A") (A") (A') (A") (A")
                 (A') (A") (A') (A") (A') (A') (A") (A') (A") (A")
                 (A') (A') (A') (A") (A') (A") (A") (A") (A') (A")
                 (A') (A') (A") (A') (A") (A") (A') (A') (A') (A")
                 (A") (A') (A") (A') (A') (A") (A') (A") (A") (A')
                 (A") (A') (A') (A') (A") (A") (A") (A") (A') (A")
                 (A') (A") (A') (A") (A") (A") (A') (A") (A') (A')
                 (A") (A') (A") (A') (A') (A") (A') (A') (A") (A")
                 (A') (A') (A') (A") (A") (A') (A") (A') (A") (A")
                 (A') (A') (A") (A") (A') (A') (A") (A') (A") (A')
                 (A') (A") (A') (A") (A") (A') (A") (A') (A") (A')
                 (A") (A") (A') (A') (A') (A") (A") (A") (A') (A")
                 (A") (A') (A') (A") (A') (A") (A') (A") (A') (A')
                 (A") (A') (A') (A") (A") (A') (A") (A') (A") (A')
                 (A") (A") (A') (A') (A") (A') (A') (A") (A") (A')
                 (A") (A') (A') (A') (A") (A') (A') (A') (A") (A')
                 (A") (A') (A") (A') (A") (A") (A') (A") (A") (A')
                 (A") (A') (A') (A") (A') (A") (A') (A') (A") (A')
                 (A") (A') (A') (A') (A") (A") (A') (A") (A') (A")
                 (A') (A") (A') (A") (A") (A') (A") (A') (A") (A')
                 (A') (A") (A') (A') (A") (A') (A") (A') (A') (A")
                 (A") (A') (A") (A") (A') (A") (A') (A") (A") (A')
                 (A') (A') (A') (A') (A") (A') (A") (A') (A') (A")
                 (A') (A") (A") (A") (A') (A") (A') (A') (A') (A")
                 (A") (A') (A') (A") (A") (A') (A") (A") (A') (A')
                 (A") (A') (A') (A") (A') (A") (A') (A") (A") (A")
                 (A') (A") (A') (A') (A') (A") (A") (A') (A') (A')
                 (A") (A") (A") (A') (A") (A') (A') (A") (A") (A')
                 (A") (A") (A') (A") (A') (A') (A') (A') (A") (A")
                 (A') (A") (A') (A') (A") (A') (A") (A') (A") (A')
                 (A') (A") (A') (A") (A") (A') (A") (A') (A') (A")
                 (A') (A") (A') (A") (A') (A') (A") (A') (A') (A")
                 (A') (A') (A") (A') (A") (A") (A') (A') (A") (A")
                 (A") (A') (A") (A') (A") (A") (A') (A") (A') (A")
                 (A') (A') (A") (A") (A') (A') (A') (A') (A") (A")
                 (A") (A') (A") (A') (A") (A') (A") (A') (A') (A')
                 (A") (A") (A") (A") (A') (A') (A') (A') (A") (A")
                 (A') (A') (A") (A") (A') (A') (A") (A') (A") (A')
                 (A') (A") (A') (A")
 The electronic state of the initial guess is 1-A'.
 Leave Link  401 at Wed Sep 27 16:38:03 2023, MaxMem=  3221225472 cpu:             106.2 elap:               2.7
 (Enter /home/center/opt/aarch64/apps/gaussian16/c01/g16/l502.exe)
 Integral symmetry usage will be decided dynamically.
 Closed shell SCF:
 Using DIIS extrapolation, IDIIS=  1040.
 NGot=  3221225472 LenX=  3219153746 LenY=  3218144726
 Requested convergence on RMS density matrix=1.00D-08 within 128 cycles.
 Requested convergence on MAX density matrix=1.00D-06.
 Requested convergence on             energy=1.00D-06.
 No special actions if energy rises.
 Fock matrices will be formed incrementally for  20 cycles.
 Integral accuracy reduced to 1.0D-05 until final iterations.

 Cycle   1  Pass 0  IDiag  1:
 FoFJK:  IHMeth= 1 ICntrl=       0 DoSepK=F KAlg= 0 I1Cent=           0 FoldK=F
 IRaf= 570000000 NMat=       1 IRICut=       1 DoRegI=T DoRafI=F ISym2E= 1 IDoP0=0 IntGTp=1.
 FoFCou: FMM=F IPFlag=           0 FMFlag=      100000 FMFlg1=        2000
         NFxFlg=           0 DoJE=F BraDBF=F KetDBF=F FulRan=T
         wScrn=  0.000000 ICntrl=         0 IOpCl=  0 I1Cent=           0 NGrid=           0
         NMat0=    1 NMatS0=      1 NMatT0=    0 NMatD0=    1 NMtDS0=    0 NMtDT0=    0
 Petite list used in FoFCou.
 E= -1693.18268754063    
 DIIS: error= 4.58D-02 at cycle   1 NSaved=   1.
 NSaved= 1 IEnMin= 1 EnMin= -1693.18268754063     IErMin= 1 ErrMin= 4.58D-02
 ErrMax= 4.58D-02  0.00D+00 EMaxC= 1.00D-01 BMatC= 8.94D-01 BMatP= 8.94D-01
 IDIUse=3 WtCom= 5.42D-01 WtEn= 4.58D-01
 Coeff-Com:  0.100D+01
 Coeff-En:   0.100D+01
 Coeff:      0.100D+01
 Gap=     0.060 Goal=   None    Shift=    0.000
 GapD=    0.060 DampG=0.500 DampE=0.500 DampFc=0.2500 IDamp=-1.
 Damping current iteration by 2.50D-01
 RMSDP=1.73D-03 MaxDP=8.40D-02              OVMax= 1.53D-01

 Cycle   2  Pass 0  IDiag  1:
 RMSU=  4.19D-04    CP:  9.82D-01
 E= -1693.48904006245     Delta-E=       -0.306352521821 Rises=F Damp=T
 DIIS: error= 2.69D-02 at cycle   2 NSaved=   2.
 NSaved= 2 IEnMin= 2 EnMin= -1693.48904006245     IErMin= 2 ErrMin= 2.69D-02
 ErrMax= 2.69D-02  0.00D+00 EMaxC= 1.00D-01 BMatC= 2.99D-01 BMatP= 8.94D-01
 IDIUse=3 WtCom= 7.31D-01 WtEn= 2.69D-01
 Coeff-Com: -0.122D+01 0.222D+01
 Coeff-En:   0.000D+00 0.100D+01
 Coeff:     -0.892D+00 0.189D+01
 Gap=     0.059 Goal=   None    Shift=    0.000
 RMSDP=6.90D-04 MaxDP=3.41D-02 DE=-3.06D-01 OVMax= 1.16D-01

 Cycle   3  Pass 0  IDiag  1:
 RMSU=  4.24D-04    CP:  9.56D-01  2.24D+00
 E= -1694.04952814732     Delta-E=       -0.560488084870 Rises=F Damp=F
 DIIS: error= 4.98D-03 at cycle   3 NSaved=   3.
 NSaved= 3 IEnMin= 3 EnMin= -1694.04952814732     IErMin= 3 ErrMin= 4.98D-03
 ErrMax= 4.98D-03  0.00D+00 EMaxC= 1.00D-01 BMatC= 1.23D-02 BMatP= 2.99D-01
 IDIUse=3 WtCom= 9.50D-01 WtEn= 4.98D-02
 Coeff-Com: -0.253D+00 0.523D+00 0.730D+00
 Coeff-En:   0.000D+00 0.000D+00 0.100D+01
 Coeff:     -0.241D+00 0.497D+00 0.743D+00
 Gap=     0.065 Goal=   None    Shift=    0.000
 RMSDP=2.61D-04 MaxDP=1.68D-02 DE=-5.60D-01 OVMax= 1.37D-01

 Cycle   4  Pass 0  IDiag  1:
 RMSU=  2.20D-04    CP:  9.58D-01  2.14D+00  6.85D-01
 E= -1694.04211183631     Delta-E=        0.007416311013 Rises=F Damp=F
 DIIS: error= 8.81D-03 at cycle   4 NSaved=   4.
 NSaved= 4 IEnMin= 3 EnMin= -1694.04952814732     IErMin= 3 ErrMin= 4.98D-03
 ErrMax= 8.81D-03  0.00D+00 EMaxC= 1.00D-01 BMatC= 1.69D-02 BMatP= 1.23D-02
 IDIUse=3 WtCom= 9.63D-02 WtEn= 9.04D-01
 Coeff-Com: -0.364D-01 0.109D+00 0.543D+00 0.385D+00
 Coeff-En:   0.000D+00 0.000D+00 0.589D+00 0.411D+00
 Coeff:     -0.351D-02 0.105D-01 0.585D+00 0.408D+00
 Gap=     0.060 Goal=   None    Shift=    0.000
 RMSDP=1.59D-04 MaxDP=1.16D-02 DE= 7.42D-03 OVMax= 1.09D-01

 Cycle   5  Pass 0  IDiag  1:
 RMSU=  7.72D-05    CP:  9.58D-01  2.12D+00  7.83D-01  3.97D-01
 E= -1694.06167919201     Delta-E=       -0.019567355701 Rises=F Damp=F
 DIIS: error= 2.29D-03 at cycle   5 NSaved=   5.
 NSaved= 5 IEnMin= 5 EnMin= -1694.06167919201     IErMin= 5 ErrMin= 2.29D-03
 ErrMax= 2.29D-03  0.00D+00 EMaxC= 1.00D-01 BMatC= 1.09D-03 BMatP= 1.23D-02
 IDIUse=3 WtCom= 9.77D-01 WtEn= 2.29D-02
 Coeff-Com: -0.159D-01 0.351D-01 0.261D+00 0.225D+00 0.495D+00
 Coeff-En:   0.000D+00 0.000D+00 0.000D+00 0.000D+00 0.100D+01
 Coeff:     -0.155D-01 0.343D-01 0.255D+00 0.220D+00 0.507D+00
 Gap=     0.061 Goal=   None    Shift=    0.000
 RMSDP=4.86D-05 MaxDP=3.82D-03 DE=-1.96D-02 OVMax= 3.27D-02

 Cycle   6  Pass 0  IDiag  1:
 RMSU=  2.95D-05    CP:  9.57D-01  2.15D+00  7.91D-01  4.72D-01  5.77D-01
 E= -1694.06249627384     Delta-E=       -0.000817081828 Rises=F Damp=F
 DIIS: error= 1.25D-03 at cycle   6 NSaved=   6.
 NSaved= 6 IEnMin= 6 EnMin= -1694.06249627384     IErMin= 6 ErrMin= 1.25D-03
 ErrMax= 1.25D-03  0.00D+00 EMaxC= 1.00D-01 BMatC= 3.22D-04 BMatP= 1.09D-03
 IDIUse=3 WtCom= 9.87D-01 WtEn= 1.25D-02
 Coeff-Com: -0.669D-02 0.102D-01 0.111D+00 0.106D+00 0.379D+00 0.400D+00
 Coeff-En:   0.000D+00 0.000D+00 0.000D+00 0.000D+00 0.267D+00 0.733D+00
 Coeff:     -0.660D-02 0.100D-01 0.110D+00 0.105D+00 0.378D+00 0.405D+00
 Gap=     0.061 Goal=   None    Shift=    0.000
 RMSDP=2.36D-05 MaxDP=1.70D-03 DE=-8.17D-04 OVMax= 1.32D-02

 Cycle   7  Pass 0  IDiag  1:
 RMSU=  8.71D-06    CP:  9.57D-01  2.15D+00  7.96D-01  4.52D-01  6.45D-01
                    CP:  2.97D-01
 E= -1694.06287169167     Delta-E=       -0.000375417831 Rises=F Damp=F
 DIIS: error= 3.44D-04 at cycle   7 NSaved=   7.
 NSaved= 7 IEnMin= 7 EnMin= -1694.06287169167     IErMin= 7 ErrMin= 3.44D-04
 ErrMax= 3.44D-04  0.00D+00 EMaxC= 1.00D-01 BMatC= 2.05D-05 BMatP= 3.22D-04
 IDIUse=3 WtCom= 9.97D-01 WtEn= 3.44D-03
 Coeff-Com: -0.232D-02 0.276D-02 0.552D-01 0.532D-01 0.212D+00 0.271D+00
 Coeff-Com:  0.408D+00
 Coeff-En:   0.000D+00 0.000D+00 0.000D+00 0.000D+00 0.000D+00 0.183D-01
 Coeff-En:   0.982D+00
 Coeff:     -0.231D-02 0.275D-02 0.550D-01 0.531D-01 0.212D+00 0.270D+00
 Coeff:      0.410D+00
 Gap=     0.061 Goal=   None    Shift=    0.000
 RMSDP=5.75D-06 MaxDP=2.70D-04 DE=-3.75D-04 OVMax= 1.81D-03

 Initial convergence to 1.0D-05 achieved.  Increase integral accuracy.
 Cycle   8  Pass 1  IDiag  1:
 E= -1694.06255077207     Delta-E=        0.000320919598 Rises=F Damp=F
 DIIS: error= 8.24D-04 at cycle   1 NSaved=   1.
 NSaved= 1 IEnMin= 1 EnMin= -1694.06255077207     IErMin= 1 ErrMin= 8.24D-04
 ErrMax= 8.24D-04  0.00D+00 EMaxC= 1.00D-01 BMatC= 4.35D-05 BMatP= 4.35D-05
 IDIUse=3 WtCom= 9.92D-01 WtEn= 8.24D-03
 Coeff-Com:  0.100D+01
 Coeff-En:   0.100D+01
 Coeff:      0.100D+01
 Gap=     0.061 Goal=   None    Shift=    0.000
 RMSDP=5.75D-06 MaxDP=2.70D-04 DE= 3.21D-04 OVMax= 1.15D-03

 Cycle   9  Pass 1  IDiag  1:
 RMSU=  2.70D-04    CP:  9.99D-01
 E= -1694.06258775832     Delta-E=       -0.000036986255 Rises=F Damp=F
 DIIS: error= 8.65D-05 at cycle   2 NSaved=   2.
 NSaved= 2 IEnMin= 2 EnMin= -1694.06258775832     IErMin= 2 ErrMin= 8.65D-05
 ErrMax= 8.65D-05  0.00D+00 EMaxC= 1.00D-01 BMatC= 2.81D-06 BMatP= 4.35D-05
 IDIUse=1 WtCom= 1.00D+00 WtEn= 0.00D+00
 Coeff-Com:  0.790D-01 0.921D+00
 Coeff:      0.790D-01 0.921D+00
 Gap=     0.061 Goal=   None    Shift=    0.000
 RMSDP=5.97D-06 MaxDP=3.77D-04 DE=-3.70D-05 OVMax= 2.81D-03

 Cycle  10  Pass 1  IDiag  1:
 RMSU=  5.63D-06    CP:  9.99D-01  1.01D+00
 E= -1694.06257558468     Delta-E=        0.000012173638 Rises=F Damp=F
 DIIS: error= 2.27D-04 at cycle   3 NSaved=   3.
 NSaved= 3 IEnMin= 2 EnMin= -1694.06258775832     IErMin= 2 ErrMin= 8.65D-05
 ErrMax= 2.27D-04  0.00D+00 EMaxC= 1.00D-01 BMatC= 1.27D-05 BMatP= 2.81D-06
 IDIUse=3 WtCom= 3.99D-01 WtEn= 6.01D-01
 Coeff-Com: -0.599D-03 0.683D+00 0.317D+00
 Coeff-En:   0.000D+00 0.766D+00 0.234D+00
 Coeff:     -0.239D-03 0.733D+00 0.267D+00
 Gap=     0.061 Goal=   None    Shift=    0.000
 RMSDP=3.65D-06 MaxDP=2.31D-04 DE= 1.22D-05 OVMax= 1.96D-03

 Cycle  11  Pass 1  IDiag  1:
 RMSU=  9.99D-07    CP:  9.99D-01  1.01D+00  3.83D-01
 E= -1694.06259047626     Delta-E=       -0.000014891577 Rises=F Damp=F
 DIIS: error= 3.34D-05 at cycle   4 NSaved=   4.
 NSaved= 4 IEnMin= 4 EnMin= -1694.06259047626     IErMin= 4 ErrMin= 3.34D-05
 ErrMax= 3.34D-05  0.00D+00 EMaxC= 1.00D-01 BMatC= 4.52D-07 BMatP= 2.81D-06
 IDIUse=1 WtCom= 1.00D+00 WtEn= 0.00D+00
 Coeff-Com: -0.354D-02 0.449D+00 0.157D+00 0.397D+00
 Coeff:     -0.354D-02 0.449D+00 0.157D+00 0.397D+00
 Gap=     0.061 Goal=   None    Shift=    0.000
 RMSDP=6.54D-07 MaxDP=3.26D-05 DE=-1.49D-05 OVMax= 1.63D-04

 Cycle  12  Pass 1  IDiag  1:
 RMSU=  3.52D-07    CP:  9.99D-01  1.01D+00  3.12D-01  6.32D-01
 E= -1694.06259092267     Delta-E=       -0.000000446413 Rises=F Damp=F
 DIIS: error= 6.12D-06 at cycle   5 NSaved=   5.
 NSaved= 5 IEnMin= 5 EnMin= -1694.06259092267     IErMin= 5 ErrMin= 6.12D-06
 ErrMax= 6.12D-06  0.00D+00 EMaxC= 1.00D-01 BMatC= 4.42D-09 BMatP= 4.52D-07
 IDIUse=1 WtCom= 1.00D+00 WtEn= 0.00D+00
 Coeff-Com: -0.214D-02 0.261D+00 0.902D-01 0.240D+00 0.411D+00
 Coeff:     -0.214D-02 0.261D+00 0.902D-01 0.240D+00 0.411D+00
 Gap=     0.061 Goal=   None    Shift=    0.000
 RMSDP=9.34D-08 MaxDP=4.80D-06 DE=-4.46D-07 OVMax= 4.26D-05

 Cycle  13  Pass 1  IDiag  1:
 RMSU=  8.43D-08    CP:  9.99D-01  1.01D+00  3.14D-01  6.43D-01  8.94D-01
 E= -1694.06259092771     Delta-E=       -0.000000005032 Rises=F Damp=F
 DIIS: error= 2.03D-06 at cycle   6 NSaved=   6.
 NSaved= 6 IEnMin= 6 EnMin= -1694.06259092771     IErMin= 6 ErrMin= 2.03D-06
 ErrMax= 2.03D-06  0.00D+00 EMaxC= 1.00D-01 BMatC= 5.66D-10 BMatP= 4.42D-09
 IDIUse=1 WtCom= 1.00D+00 WtEn= 0.00D+00
 Coeff-Com: -0.808D-03 0.951D-01 0.328D-01 0.901D-01 0.266D+00 0.517D+00
 Coeff:     -0.808D-03 0.951D-01 0.328D-01 0.901D-01 0.266D+00 0.517D+00
 Gap=     0.061 Goal=   None    Shift=    0.000
 RMSDP=2.89D-08 MaxDP=1.96D-06 DE=-5.03D-09 OVMax= 1.67D-05

 Cycle  14  Pass 1  IDiag  1:
 RMSU=  2.00D-08    CP:  9.99D-01  1.01D+00  3.14D-01  6.36D-01  9.21D-01
                    CP:  8.00D-01
 E= -1694.06259092835     Delta-E=       -0.000000000648 Rises=F Damp=F
 DIIS: error= 4.12D-07 at cycle   7 NSaved=   7.
 NSaved= 7 IEnMin= 7 EnMin= -1694.06259092835     IErMin= 7 ErrMin= 4.12D-07
 ErrMax= 4.12D-07  0.00D+00 EMaxC= 1.00D-01 BMatC= 3.58D-11 BMatP= 5.66D-10
 IDIUse=1 WtCom= 1.00D+00 WtEn= 0.00D+00
 Coeff-Com: -0.269D-03 0.310D-01 0.103D-01 0.309D-01 0.105D+00 0.272D+00
 Coeff-Com:  0.551D+00
 Coeff:     -0.269D-03 0.310D-01 0.103D-01 0.309D-01 0.105D+00 0.272D+00
 Coeff:      0.551D+00
 Gap=     0.061 Goal=   None    Shift=    0.000
 RMSDP=1.06D-08 MaxDP=5.01D-07 DE=-6.48D-10 OVMax= 4.98D-06

 Cycle  15  Pass 1  IDiag  1:
 RMSU=  8.11D-09    CP:  9.99D-01  1.01D+00  3.14D-01  6.38D-01  9.22D-01
                    CP:  8.18D-01  6.94D-01
 E= -1694.06259092837     Delta-E=       -0.000000000018 Rises=F Damp=F
 DIIS: error= 2.76D-07 at cycle   8 NSaved=   8.
 NSaved= 8 IEnMin= 8 EnMin= -1694.06259092837     IErMin= 8 ErrMin= 2.76D-07
 ErrMax= 2.76D-07  0.00D+00 EMaxC= 1.00D-01 BMatC= 1.73D-11 BMatP= 3.58D-11
 IDIUse=1 WtCom= 1.00D+00 WtEn= 0.00D+00
 Coeff-Com:  0.228D-04-0.320D-02-0.162D-02-0.121D-02 0.730D-02 0.774D-01
 Coeff-Com:  0.427D+00 0.494D+00
 Coeff:      0.228D-04-0.320D-02-0.162D-02-0.121D-02 0.730D-02 0.774D-01
 Coeff:      0.427D+00 0.494D+00
 Gap=     0.061 Goal=   None    Shift=    0.000
 RMSDP=5.70D-09 MaxDP=2.82D-07 DE=-1.82D-11 OVMax= 3.16D-06

 SCF Done:  E(RB3LYP) =  -1694.06259093     A.U. after   15 cycles
            NFock= 15  Conv=0.57D-08     -V/T= 2.0044
 KE= 1.686722775182D+03 PE=-1.334238600603D+04 EE= 5.255701634075D+03
 Leave Link  502 at Wed Sep 27 16:39:55 2023, MaxMem=  3221225472 cpu:            3990.3 elap:             110.6
 (Enter /home/center/opt/aarch64/apps/gaussian16/c01/g16/l601.exe)
 Copying SCF densities to generalized density rwf, IOpCl= 0 IROHF=0.

 **********************************************************************

            Population analysis using the SCF Density.

 **********************************************************************

 Orbital symmetries:
       Occupied  (A") (A') (A') (A") (A") (A') (A') (A") (A') (A')
                 (A") (A') (A") (A') (A") (A') (A") (A') (A') (A")
                 (A") (A') (A") (A') (A") (A') (A') (A") (A') (A")
                 (A") (A') (A") (A') (A') (A") (A') (A") (A') (A')
                 (A") (A') (A") (A') (A') (A") (A') (A") (A') (A')
                 (A") (A") (A') (A') (A") (A') (A') (A") (A') (A")
                 (A') (A") (A") (A") (A') (A') (A') (A') (A") (A")
                 (A') (A") (A") (A") (A') (A') (A") (A') (A') (A')
                 (A') (A") (A") (A') (A") (A") (A') (A") (A') (A')
                 (A") (A') (A") (A") (A') (A') (A") (A') (A") (A')
                 (A") (A') (A') (A') (A') (A') (A") (A") (A") (A')
                 (A') (A') (A") (A") (A") (A") (A") (A') (A") (A')
                 (A') (A') (A') (A") (A") (A') (A') (A") (A") (A')
                 (A") (A") (A') (A") (A') (A') (A") (A') (A') (A')
                 (A") (A") (A") (A") (A') (A')
       Virtual   (A') (A') (A") (A") (A") (A") (A') (A') (A') (A")
                 (A') (A') (A") (A') (A') (A") (A') (A') (A") (A")
                 (A') (A') (A") (A") (A') (A") (A') (A") (A") (A')
                 (A") (A') (A") (A') (A') (A") (A") (A') (A") (A')
                 (A') (A') (A') (A") (A") (A') (A") (A') (A") (A")
                 (A') (A') (A') (A') (A') (A') (A") (A') (A") (A")
                 (A') (A") (A") (A") (A') (A") (A') (A") (A') (A")
                 (A') (A') (A") (A') (A') (A") (A") (A') (A") (A')
                 (A") (A') (A') (A') (A") (A') (A") (A') (A') (A")
                 (A") (A") (A') (A') (A') (A') (A") (A") (A') (A')
                 (A") (A") (A') (A") (A') (A") (A") (A') (A") (A")
                 (A') (A') (A") (A') (A") (A') (A') (A") (A') (A")
                 (A') (A") (A') (A') (A') (A') (A") (A') (A") (A')
                 (A') (A") (A") (A') (A') (A") (A') (A") (A") (A')
                 (A') (A') (A") (A') (A") (A') (A") (A") (A") (A')
                 (A') (A") (A") (A") (A') (A') (A") (A') (A') (A")
                 (A') (A") (A') (A") (A") (A') (A') (A') (A") (A")
                 (A') (A') (A') (A') (A") (A") (A") (A") (A') (A")
                 (A") (A') (A') (A") (A') (A') (A") (A") (A') (A")
                 (A") (A') (A') (A') (A") (A') (A") (A') (A") (A')
                 (A") (A') (A') (A") (A') (A') (A") (A") (A') (A')
                 (A") (A') (A") (A") (A') (A') (A") (A') (A") (A")
                 (A') (A") (A") (A') (A') (A') (A") (A") (A') (A')
                 (A") (A') (A') (A") (A') (A") (A') (A") (A") (A')
                 (A") (A') (A') (A') (A") (A") (A') (A") (A') (A")
                 (A') (A') (A") (A") (A") (A') (A') (A") (A') (A")
                 (A') (A") (A') (A") (A') (A") (A') (A") (A') (A")
                 (A") (A') (A") (A') (A") (A') (A") (A') (A") (A')
                 (A") (A') (A') (A") (A') (A") (A") (A') (A') (A")
                 (A") (A') (A') (A") (A') (A') (A') (A") (A") (A")
                 (A') (A") (A") (A') (A') (A') (A") (A') (A") (A')
                 (A") (A') (A') (A") (A") (A") (A') (A') (A") (A')
                 (A') (A") (A") (A') (A') (A") (A") (A") (A") (A')
                 (A") (A') (A') (A") (A') (A') (A") (A") (A') (A')
                 (A") (A') (A') (A") (A') (A") (A') (A') (A") (A")
                 (A') (A') (A") (A') (A') (A") (A') (A") (A') (A')
                 (A") (A") (A') (A') (A') (A") (A") (A') (A") (A")
                 (A") (A') (A") (A") (A") (A') (A') (A") (A") (A')
                 (A') (A') (A") (A') (A') (A') (A") (A") (A') (A')
                 (A') (A") (A') (A") (A") (A') (A") (A') (A') (A")
                 (A") (A') (A") (A') (A") (A') (A") (A') (A') (A")
                 (A') (A') (A") (A') (A') (A") (A') (A') (A") (A")
                 (A") (A') (A') (A") (A') (A") (A') (A") (A') (A")
                 (A') (A") (A') (A") (A') (A") (A") (A') (A") (A')
                 (A") (A') (A") (A") (A') (A") (A") (A') (A') (A')
                 (A") (A') (A") (A') (A") (A') (A") (A") (A') (A')
                 (A") (A') (A") (A') (A") (A') (A') (A") (A') (A")
                 (A') (A") (A") (A') (A") (A') (A') (A") (A") (A')
                 (A') (A") (A') (A') (A") (A") (A") (A") (A') (A')
                 (A") (A") (A") (A') (A") (A") (A') (A") (A') (A')
                 (A") (A') (A") (A') (A') (A") (A') (A') (A") (A')
                 (A") (A") (A') (A') (A") (A') (A') (A") (A") (A')
                 (A") (A") (A') (A") (A') (A') (A") (A') (A") (A")
                 (A') (A") (A') (A') (A") (A") (A") (A') (A') (A')
                 (A') (A") (A") (A') (A") (A') (A") (A") (A') (A")
                 (A") (A') (A") (A") (A') (A') (A') (A") (A') (A')
                 (A") (A') (A') (A") (A") (A") (A') (A") (A') (A')
                 (A') (A") (A') (A') (A") (A') (A') (A") (A') (A")
                 (A") (A") (A') (A') (A') (A") (A") (A') (A") (A')
                 (A") (A") (A') (A") (A') (A") (A") (A') (A') (A')
                 (A') (A') (A") (A') (A') (A") (A') (A") (A") (A')
                 (A") (A') (A") (A') (A") (A') (A') (A') (A") (A')
                 (A") (A') (A") (A') (A') (A') (A") (A") (A") (A')
                 (A") (A") (A') (A") (A') (A") (A') (A') (A") (A')
                 (A") (A') (A') (A") (A') (A") (A") (A') (A") (A')
                 (A') (A") (A') (A") (A') (A") (A') (A") (A') (A')
                 (A') (A") (A") (A") (A') (A') (A") (A') (A") (A')
                 (A') (A") (A") (A') (A") (A') (A") (A") (A') (A')
                 (A') (A') (A") (A") (A') (A") (A') (A") (A") (A")
                 (A') (A') (A") (A') (A') (A") (A') (A") (A') (A")
                 (A") (A') (A") (A') (A') (A") (A') (A") (A") (A')
                 (A") (A") (A') (A') (A") (A') (A') (A") (A') (A")
                 (A') (A") (A') (A') (A') (A") (A") (A') (A") (A')
                 (A') (A") (A') (A") (A") (A') (A') (A") (A") (A')
                 (A') (A") (A') (A") (A') (A') (A") (A') (A') (A")
                 (A') (A') (A") (A") (A') (A") (A') (A') (A") (A")
                 (A") (A') (A") (A") (A') (A') (A") (A") (A') (A")
                 (A') (A') (A") (A") (A') (A') (A') (A') (A") (A")
                 (A") (A') (A") (A') (A") (A') (A") (A') (A') (A')
                 (A") (A") (A") (A") (A') (A') (A") (A') (A') (A')
                 (A") (A") (A') (A') (A") (A') (A") (A') (A") (A')
                 (A') (A") (A') (A")
 The electronic state is 1-A'.
 Alpha  occ. eigenvalues --  -10.19810 -10.19810 -10.19773 -10.19771 -10.19689
 Alpha  occ. eigenvalues --  -10.19689 -10.19648 -10.19648 -10.18842 -10.18822
 Alpha  occ. eigenvalues --  -10.18774 -10.18774 -10.18764 -10.18764 -10.18624
 Alpha  occ. eigenvalues --  -10.18624 -10.18602 -10.18602 -10.18555 -10.18555
 Alpha  occ. eigenvalues --  -10.18512 -10.18512 -10.17846 -10.17846 -10.17806
 Alpha  occ. eigenvalues --  -10.17806 -10.17735 -10.17735 -10.17651 -10.17651
 Alpha  occ. eigenvalues --  -10.16961 -10.16961 -10.16877 -10.16877 -10.16840
 Alpha  occ. eigenvalues --  -10.16839 -10.16836 -10.16752 -10.16752 -10.16704
 Alpha  occ. eigenvalues --  -10.16660 -10.16660 -10.16570 -10.16570  -0.90274
 Alpha  occ. eigenvalues --   -0.88760  -0.88243  -0.86795  -0.86424  -0.84493
 Alpha  occ. eigenvalues --   -0.83276  -0.81368  -0.80662  -0.79371  -0.79122
 Alpha  occ. eigenvalues --   -0.78704  -0.77478  -0.77223  -0.76785  -0.75105
 Alpha  occ. eigenvalues --   -0.74912  -0.73691  -0.73206  -0.71829  -0.69999
 Alpha  occ. eigenvalues --   -0.68213  -0.68082  -0.66289  -0.63530  -0.63163
 Alpha  occ. eigenvalues --   -0.61902  -0.61663  -0.61332  -0.60733  -0.60065
 Alpha  occ. eigenvalues --   -0.60002  -0.58871  -0.58459  -0.58229  -0.56642
 Alpha  occ. eigenvalues --   -0.53506  -0.53345  -0.53048  -0.51676  -0.51505
 Alpha  occ. eigenvalues --   -0.51255  -0.50398  -0.49298  -0.48585  -0.47884
 Alpha  occ. eigenvalues --   -0.47503  -0.46842  -0.46284  -0.46279  -0.46156
 Alpha  occ. eigenvalues --   -0.45580  -0.44857  -0.44707  -0.44421  -0.43908
 Alpha  occ. eigenvalues --   -0.43285  -0.42914  -0.42557  -0.42337  -0.42323
 Alpha  occ. eigenvalues --   -0.41744  -0.41606  -0.41523  -0.41167  -0.40737
 Alpha  occ. eigenvalues --   -0.40514  -0.40336  -0.40250  -0.39603  -0.39320
 Alpha  occ. eigenvalues --   -0.38934  -0.38557  -0.37566  -0.37249  -0.37081
 Alpha  occ. eigenvalues --   -0.36282  -0.35726  -0.35340  -0.34895  -0.34533
 Alpha  occ. eigenvalues --   -0.34147  -0.33814  -0.33489  -0.33027  -0.32724
 Alpha  occ. eigenvalues --   -0.32544  -0.31934  -0.31540  -0.30522  -0.30461
 Alpha  occ. eigenvalues --   -0.29219  -0.28540  -0.27522  -0.27417  -0.25511
 Alpha  occ. eigenvalues --   -0.25370  -0.23486  -0.23355  -0.21473  -0.18782
 Alpha  occ. eigenvalues --   -0.16727
 Alpha virt. eigenvalues --   -0.10633  -0.08690  -0.05334  -0.03677  -0.03427
 Alpha virt. eigenvalues --   -0.01718  -0.01033   0.00877   0.01209   0.01427
 Alpha virt. eigenvalues --    0.02145   0.03087   0.03338   0.03775   0.03968
 Alpha virt. eigenvalues --    0.03978   0.04831   0.05625   0.05850   0.06000
 Alpha virt. eigenvalues --    0.06135   0.06891   0.07284   0.07462   0.07801
 Alpha virt. eigenvalues --    0.08346   0.08723   0.09312   0.09643   0.09893
 Alpha virt. eigenvalues --    0.10433   0.11107   0.11387   0.11628   0.11975
 Alpha virt. eigenvalues --    0.13127   0.13153   0.13274   0.13393   0.14099
 Alpha virt. eigenvalues --    0.14613   0.15135   0.16195   0.16582   0.17204
 Alpha virt. eigenvalues --    0.17770   0.18189   0.18241   0.19001   0.19867
 Alpha virt. eigenvalues --    0.20213   0.20275   0.22037   0.22158   0.23661
 Alpha virt. eigenvalues --    0.23990   0.24219   0.24228   0.24895   0.25192
 Alpha virt. eigenvalues --    0.25405   0.26328   0.26779   0.26868   0.26955
 Alpha virt. eigenvalues --    0.27462   0.27504   0.28400   0.28625   0.28715
 Alpha virt. eigenvalues --    0.29138   0.29461   0.29483   0.29959   0.30223
 Alpha virt. eigenvalues --    0.30315   0.30673   0.31253   0.31920   0.32043
 Alpha virt. eigenvalues --    0.32904   0.33499   0.33860   0.34113   0.34261
 Alpha virt. eigenvalues --    0.34805   0.34918   0.35256   0.35347   0.35809
 Alpha virt. eigenvalues --    0.36198   0.36926   0.37125   0.37704   0.38061
 Alpha virt. eigenvalues --    0.38399   0.38560   0.38868   0.38878   0.38968
 Alpha virt. eigenvalues --    0.39292   0.39447   0.39728   0.39795   0.39965
 Alpha virt. eigenvalues --    0.39997   0.40185   0.40512   0.41113   0.41273
 Alpha virt. eigenvalues --    0.41683   0.42084   0.42311   0.42486   0.42569
 Alpha virt. eigenvalues --    0.42819   0.43141   0.43324   0.43370   0.44182
 Alpha virt. eigenvalues --    0.44252   0.44552   0.44589   0.44931   0.45046
 Alpha virt. eigenvalues --    0.45173   0.45278   0.45391   0.45753   0.45928
 Alpha virt. eigenvalues --    0.46014   0.46015   0.46244   0.46618   0.46844
 Alpha virt. eigenvalues --    0.46972   0.47047   0.47500   0.48003   0.48999
 Alpha virt. eigenvalues --    0.49086   0.49413   0.49566   0.50139   0.50257
 Alpha virt. eigenvalues --    0.50358   0.50416   0.50551   0.50989   0.51326
 Alpha virt. eigenvalues --    0.51648   0.51802   0.52395   0.52614   0.52617
 Alpha virt. eigenvalues --    0.53625   0.53776   0.54647   0.54886   0.55468
 Alpha virt. eigenvalues --    0.55658   0.56592   0.56951   0.57445   0.57689
 Alpha virt. eigenvalues --    0.57976   0.58329   0.58620   0.58668   0.58797
 Alpha virt. eigenvalues --    0.59297   0.59721   0.60341   0.60724   0.60980
 Alpha virt. eigenvalues --    0.61266   0.61642   0.61748   0.61991   0.62147
 Alpha virt. eigenvalues --    0.62322   0.62802   0.63116   0.63170   0.63439
 Alpha virt. eigenvalues --    0.63750   0.63828   0.63970   0.64544   0.64617
 Alpha virt. eigenvalues --    0.64883   0.64929   0.65463   0.66009   0.66814
 Alpha virt. eigenvalues --    0.66863   0.66912   0.67161   0.67721   0.67960
 Alpha virt. eigenvalues --    0.68473   0.68574   0.69927   0.70112   0.70779
 Alpha virt. eigenvalues --    0.71175   0.71668   0.72148   0.72293   0.72756
 Alpha virt. eigenvalues --    0.72954   0.72990   0.73839   0.74021   0.74397
 Alpha virt. eigenvalues --    0.74664   0.74779   0.76430   0.76577   0.76918
 Alpha virt. eigenvalues --    0.77503   0.77600   0.78136   0.78363   0.79063
 Alpha virt. eigenvalues --    0.79083   0.79148   0.79814   0.80096   0.80624
 Alpha virt. eigenvalues --    0.80664   0.81109   0.82110   0.82122   0.82419
 Alpha virt. eigenvalues --    0.82801   0.83158   0.83804   0.83955   0.84021
 Alpha virt. eigenvalues --    0.84432   0.84938   0.85223   0.85760   0.85847
 Alpha virt. eigenvalues --    0.86801   0.87115   0.87348   0.88971   0.89105
 Alpha virt. eigenvalues --    0.89630   0.90435   0.90454   0.91004   0.91802
 Alpha virt. eigenvalues --    0.92954   0.93224   0.93596   0.94694   0.94991
 Alpha virt. eigenvalues --    0.95426   0.95819   0.96023   0.96856   0.97405
 Alpha virt. eigenvalues --    0.97755   0.98311   0.98335   0.98853   0.99306
 Alpha virt. eigenvalues --    0.99643   1.00113   1.01591   1.01757   1.01777
 Alpha virt. eigenvalues --    1.02314   1.02646   1.03102   1.03466   1.03649
 Alpha virt. eigenvalues --    1.03863   1.03997   1.04766   1.04842   1.05327
 Alpha virt. eigenvalues --    1.05363   1.05539   1.06174   1.06456   1.06673
 Alpha virt. eigenvalues --    1.07088   1.07089   1.07398   1.07696   1.07810
 Alpha virt. eigenvalues --    1.08641   1.08892   1.09265   1.09475   1.09554
 Alpha virt. eigenvalues --    1.10241   1.10386   1.11222   1.11945   1.12401
 Alpha virt. eigenvalues --    1.12641   1.12702   1.13180   1.13732   1.14023
 Alpha virt. eigenvalues --    1.14367   1.14621   1.15385   1.15514   1.15741
 Alpha virt. eigenvalues --    1.16505   1.17111   1.17513   1.17873   1.19034
 Alpha virt. eigenvalues --    1.19606   1.20100   1.20805   1.21439   1.22313
 Alpha virt. eigenvalues --    1.22709   1.23032   1.24644   1.25414   1.25421
 Alpha virt. eigenvalues --    1.26871   1.27363   1.27695   1.28143   1.30127
 Alpha virt. eigenvalues --    1.31455   1.31473   1.31937   1.32185   1.33302
 Alpha virt. eigenvalues --    1.33416   1.34724   1.36062   1.36708   1.36783
 Alpha virt. eigenvalues --    1.39047   1.39282   1.39710   1.39793   1.40677
 Alpha virt. eigenvalues --    1.41400   1.42055   1.42061   1.42159   1.43054
 Alpha virt. eigenvalues --    1.43465   1.44067   1.44478   1.44515   1.45343
 Alpha virt. eigenvalues --    1.46370   1.46637   1.46716   1.47015   1.47904
 Alpha virt. eigenvalues --    1.48089   1.48321   1.48696   1.48884   1.49099
 Alpha virt. eigenvalues --    1.49276   1.50136   1.50489   1.50590   1.50791
 Alpha virt. eigenvalues --    1.50822   1.51279   1.52201   1.52287   1.52950
 Alpha virt. eigenvalues --    1.53331   1.53547   1.53589   1.54165   1.54964
 Alpha virt. eigenvalues --    1.55608   1.55653   1.55771   1.55949   1.56458
 Alpha virt. eigenvalues --    1.56933   1.57816   1.58734   1.58803   1.59512
 Alpha virt. eigenvalues --    1.59822   1.60171   1.61096   1.61453   1.62011
 Alpha virt. eigenvalues --    1.62183   1.62743   1.62865   1.62972   1.65330
 Alpha virt. eigenvalues --    1.65822   1.65876   1.66214   1.67437   1.67994
 Alpha virt. eigenvalues --    1.68669   1.68973   1.70412   1.70922   1.71158
 Alpha virt. eigenvalues --    1.71539   1.71770   1.72048   1.72226   1.72839
 Alpha virt. eigenvalues --    1.73609   1.73650   1.73873   1.74093   1.74258
 Alpha virt. eigenvalues --    1.74340   1.75214   1.76027   1.76129   1.76867
 Alpha virt. eigenvalues --    1.77648   1.78238   1.78575   1.79958   1.80017
 Alpha virt. eigenvalues --    1.80155   1.80217   1.81579   1.81641   1.82070
 Alpha virt. eigenvalues --    1.82431   1.82495   1.83032   1.83181   1.83693
 Alpha virt. eigenvalues --    1.84313   1.84575   1.84586   1.84908   1.85566
 Alpha virt. eigenvalues --    1.86462   1.86816   1.87013   1.87397   1.87578
 Alpha virt. eigenvalues --    1.87917   1.88016   1.88833   1.88911   1.89084
 Alpha virt. eigenvalues --    1.89413   1.89842   1.90255   1.90810   1.91339
 Alpha virt. eigenvalues --    1.91680   1.91986   1.92175   1.92672   1.92910
 Alpha virt. eigenvalues --    1.93011   1.93485   1.93814   1.93831   1.94291
 Alpha virt. eigenvalues --    1.94442   1.95126   1.95206   1.95914   1.95959
 Alpha virt. eigenvalues --    1.96458   1.96685   1.96745   1.97957   1.97968
 Alpha virt. eigenvalues --    1.99385   2.00555   2.00882   2.01641   2.02206
 Alpha virt. eigenvalues --    2.02213   2.02334   2.02880   2.03406   2.04049
 Alpha virt. eigenvalues --    2.06816   2.07447   2.07758   2.08376   2.09222
 Alpha virt. eigenvalues --    2.10008   2.10960   2.11195   2.11411   2.12365
 Alpha virt. eigenvalues --    2.12435   2.13387   2.13992   2.14335   2.15208
 Alpha virt. eigenvalues --    2.15911   2.16545   2.17024   2.17693   2.18388
 Alpha virt. eigenvalues --    2.18918   2.19608   2.20150   2.22050   2.22813
 Alpha virt. eigenvalues --    2.22827   2.23486   2.23548   2.23777   2.23826
 Alpha virt. eigenvalues --    2.25087   2.25901   2.26423   2.26486   2.27192
 Alpha virt. eigenvalues --    2.27434   2.27547   2.27945   2.28383   2.28693
 Alpha virt. eigenvalues --    2.28854   2.30256   2.30978   2.31677   2.33430
 Alpha virt. eigenvalues --    2.34999   2.35623   2.35909   2.37460   2.38585
 Alpha virt. eigenvalues --    2.38664   2.40128   2.40477   2.41220   2.42289
 Alpha virt. eigenvalues --    2.42936   2.42943   2.44828   2.44939   2.45107
 Alpha virt. eigenvalues --    2.45234   2.45927   2.47212   2.47489   2.49739
 Alpha virt. eigenvalues --    2.51763   2.52973   2.53245   2.53813   2.54248
 Alpha virt. eigenvalues --    2.54965   2.55866   2.56940   2.57149   2.58273
 Alpha virt. eigenvalues --    2.58835   2.59120   2.59862   2.60081   2.60383
 Alpha virt. eigenvalues --    2.61012   2.61144   2.61218   2.61320   2.61625
 Alpha virt. eigenvalues --    2.62083   2.62737   2.63093   2.63498   2.63564
 Alpha virt. eigenvalues --    2.63648   2.64131   2.64738   2.65159   2.65475
 Alpha virt. eigenvalues --    2.66253   2.66657   2.66724   2.66810   2.66947
 Alpha virt. eigenvalues --    2.67112   2.67778   2.67902   2.68264   2.68407
 Alpha virt. eigenvalues --    2.68756   2.69151   2.69546   2.70066   2.70144
 Alpha virt. eigenvalues --    2.70342   2.70466   2.70755   2.72008   2.72196
 Alpha virt. eigenvalues --    2.72481   2.73040   2.73158   2.73329   2.73582
 Alpha virt. eigenvalues --    2.74140   2.74750   2.74810   2.74840   2.75085
 Alpha virt. eigenvalues --    2.75681   2.76148   2.77025   2.77156   2.77426
 Alpha virt. eigenvalues --    2.77910   2.78052   2.78143   2.78717   2.79545
 Alpha virt. eigenvalues --    2.79701   2.80032   2.80645   2.81331   2.82708
 Alpha virt. eigenvalues --    2.83280   2.83880   2.84408   2.84778   2.85191
 Alpha virt. eigenvalues --    2.86218   2.87454   2.87625   2.88028   2.88797
 Alpha virt. eigenvalues --    2.89206   2.90142   2.90320   2.91689   2.91956
 Alpha virt. eigenvalues --    2.93117   2.93886   2.94341   2.94773   2.94887
 Alpha virt. eigenvalues --    2.96826   2.97891   2.98520   2.98566   2.99000
 Alpha virt. eigenvalues --    2.99119   2.99631   3.00964   3.02358   3.03356
 Alpha virt. eigenvalues --    3.05689   3.05716   3.06895   3.08109   3.08853
 Alpha virt. eigenvalues --    3.09837   3.09981   3.15930   3.16146   3.17135
 Alpha virt. eigenvalues --    3.17606   3.17999   3.18488   3.19211   3.21014
 Alpha virt. eigenvalues --    3.21439   3.22077   3.24459   3.25450   3.30276
 Alpha virt. eigenvalues --    3.30958   3.31105   3.31114   3.31665   3.33410
 Alpha virt. eigenvalues --    3.35164   3.36700   3.36722   3.37114   3.37498
 Alpha virt. eigenvalues --    3.37543   3.37729   3.39418   3.39692   3.39827
 Alpha virt. eigenvalues --    3.41096   3.41425   3.42957   3.43310   3.44950
 Alpha virt. eigenvalues --    3.44992   3.46320   3.46932   3.49438   3.49610
 Alpha virt. eigenvalues --    3.50675   3.51827   3.52561   3.53048   3.53231
 Alpha virt. eigenvalues --    3.55849   3.57212   3.58621   3.59055   3.60819
 Alpha virt. eigenvalues --    3.61965   3.62682   3.63312   3.64041   3.64763
 Alpha virt. eigenvalues --    3.65014   3.66630   3.67490   3.68385   3.68749
 Alpha virt. eigenvalues --    3.69106   3.71883   3.73289   3.73883   4.00206
 Alpha virt. eigenvalues --    4.00218   4.01205   4.01537   4.02214   4.02259
 Alpha virt. eigenvalues --    4.03213   4.03518   4.15563   4.16093   4.17474
 Alpha virt. eigenvalues --    4.19306   4.19849   4.20625   4.20733   4.21759
 Alpha virt. eigenvalues --    4.21917   4.23724   4.24132   4.26241   4.26862
 Alpha virt. eigenvalues --    4.29822   4.38417   4.41306   4.62215   4.64813
 Alpha virt. eigenvalues --    4.78359   4.79027   4.79792   4.81175   4.81480
 Alpha virt. eigenvalues --    4.81967   4.82388   4.83165   4.85391   4.85522
 Alpha virt. eigenvalues --   23.40800  23.46459  23.55660  23.62575  23.70030
 Alpha virt. eigenvalues --   23.76115  23.77445  23.79764  23.81126  23.81393
 Alpha virt. eigenvalues --   23.83215  23.85721  23.86445  23.88103  23.88594
 Alpha virt. eigenvalues --   23.89991  23.91373  23.91454  23.92630  23.95648
 Alpha virt. eigenvalues --   23.96718  23.98834  23.99025  24.00340  24.08932
 Alpha virt. eigenvalues --   24.09460  24.10231  24.10681  24.11179  24.11481
 Alpha virt. eigenvalues --   24.11795  24.12994  24.13568  24.13908  24.15170
 Alpha virt. eigenvalues --   24.15210  24.15211  24.15864  24.16863  24.16893
 Alpha virt. eigenvalues --   24.19734  24.19778  24.21703  24.21773
          Condensed to atoms (all electrons):
 Mulliken charges:
               1
     1  C   -0.078849
     2  C   -0.061789
     3  C   -0.067493
     4  C   -0.048281
     5  C   -0.096913
     6  C   -0.092066
     7  C   -0.027371
     8  C   -0.071685
     9  C   -0.000640
    10  C   -0.059305
    11  H    0.085226
    12  H    0.076922
    13  H    0.078030
    14  H    0.085487
    15  H    0.098235
    16  H    0.098585
    17  C   -0.031845
    18  C   -0.071685
    19  C   -0.005322
    20  C   -0.059305
    21  H    0.075655
    22  H    0.076740
    23  C   -0.027371
    24  C   -0.078849
    25  C   -0.000640
    26  C   -0.061789
    27  H    0.076922
    28  H    0.078030
    29  C   -0.067493
    30  C   -0.096913
    31  C   -0.048281
    32  C   -0.092066
    33  H    0.085226
    34  H    0.098585
    35  H    0.098235
    36  H    0.085487
    37  C   -0.014775
    38  C   -0.140988
    39  C   -0.064812
    40  C   -0.029362
    41  C   -0.085497
    42  C   -0.130692
    43  C   -0.033148
    44  C   -0.002411
    45  C    0.012270
    46  C   -0.148535
    47  H    0.077808
    48  H    0.069327
    49  H    0.127222
    50  H    0.132666
    51  H    0.083118
    52  H    0.090201
    53  C   -0.037317
    54  C   -0.002411
    55  C    0.008303
    56  C   -0.148535
    57  H    0.067940
    58  H    0.124883
    59  C   -0.033148
    60  C   -0.014775
    61  C    0.012270
    62  C   -0.140988
    63  H    0.069327
    64  H    0.127222
    65  C   -0.064812
    66  C   -0.085497
    67  C   -0.029362
    68  C   -0.130692
    69  H    0.077808
    70  H    0.090201
    71  H    0.083118
    72  H    0.132666
 Sum of Mulliken charges =   0.00000
 Mulliken charges with hydrogens summed into heavy atoms:
               1
     1  C   -0.078849
     2  C   -0.061789
     3  C    0.017733
     4  C    0.037205
     5  C    0.001672
     6  C    0.006169
     7  C    0.049551
     8  C   -0.071685
     9  C    0.077389
    10  C   -0.059305
    17  C    0.043810
    18  C   -0.071685
    19  C    0.071418
    20  C   -0.059305
    23  C    0.049551
    24  C   -0.078849
    25  C    0.077389
    26  C   -0.061789
    29  C    0.017733
    30  C    0.001672
    31  C    0.037205
    32  C    0.006169
    37  C   -0.014775
    38  C   -0.140988
    39  C    0.012996
    40  C    0.103304
    41  C    0.004704
    42  C   -0.047574
    43  C    0.036179
    44  C   -0.002411
    45  C    0.139492
    46  C   -0.148535
    53  C    0.030623
    54  C   -0.002411
    55  C    0.133185
    56  C   -0.148535
    59  C    0.036179
    60  C   -0.014775
    61  C    0.139492
    62  C   -0.140988
    65  C    0.012996
    66  C    0.004704
    67  C    0.103304
    68  C   -0.047574
         Mulliken charges condensed to fragments:
      1     -0.048590
      2      0.048590
 Electronic spatial extent (au):  <R**2>=          25018.3384
 Charge=              0.0000 electrons
 Dipole moment (field-independent basis, Debye):
    X=             -0.2480    Y=             -1.8652    Z=              0.0000  Tot=              1.8816
 Quadrupole moment (field-independent basis, Debye-Ang):
   XX=           -245.3644   YY=           -250.0436   ZZ=           -220.3016
   XY=              0.1663   XZ=              0.0000   YZ=              0.0000
 Traceless Quadrupole moment (field-independent basis, Debye-Ang):
   XX=             -6.7946   YY=            -11.4737   ZZ=             18.2683
   XY=              0.1663   XZ=              0.0000   YZ=              0.0000
 Octapole moment (field-independent basis, Debye-Ang**2):
  XXX=            -15.1206  YYY=            161.6482  ZZZ=              0.0000  XYY=              2.4641
  XXY=            -69.3298  XXZ=              0.0000  XZZ=             -4.4362  YZZ=            -40.9871
  YYZ=              0.0000  XYZ=              0.0000
 Hexadecapole moment (field-independent basis, Debye-Ang**3):
 XXXX=          -1301.1126 YYYY=         -10428.7624 ZZZZ=         -21073.3485 XXXY=           -321.7618
 XXXZ=              0.0000 YYYX=           -325.2852 YYYZ=              0.0000 ZZZX=              0.0000
 ZZZY=              0.0000 XXYY=          -2025.5667 XXZZ=          -4160.7708 YYZZ=          -5560.9407
 XXYZ=              0.0000 YYXZ=              0.0000 ZZXY=            -94.4371
 N-N= 4.705899005849D+03 E-N=-1.334238595504D+04  KE= 1.686722775182D+03
 Symmetry A'   KE= 9.134499323059D+02
 Symmetry A"   KE= 7.732728428761D+02
 No NMR shielding tensors so no spin-rotation constants.
 Leave Link  601 at Wed Sep 27 16:39:59 2023, MaxMem=  3221225472 cpu:              49.6 elap:               1.3
 (Enter /home/center/opt/aarch64/apps/gaussian16/c01/g16/l122.exe)
 CPIOFr:  IOpCl= 0 IRwI=-1 IRwCP=  731 ICalc= -1 LCPTot=     1419224 Len1MO=     3708034 IndFrg=     1419224
 CPIOFr:  IOpCl= 0 IRwI=-1 IRwCP=  731 ICalc=  0 LCPTot=     1419224 Len1MO=     3708034 IndFrg=     5127258
 Counterpoise: doing calculation for fragment   1 using the basis set of the full-system, NewBq=T
 Leave Link  122 at Wed Sep 27 16:40:02 2023, MaxMem=  3221225472 cpu:               8.4 elap:               0.4
 (Enter /home/center/opt/aarch64/apps/gaussian16/c01/g16/l301.exe)
 Basis read from rwf:  (5D, 7F)
 No pseudopotential information found on rwf file.
 There are   528 symmetry adapted cartesian basis functions of A'  symmetry.
 There are   476 symmetry adapted cartesian basis functions of A"  symmetry.
 There are   504 symmetry adapted basis functions of A'  symmetry.
 There are   456 symmetry adapted basis functions of A"  symmetry.
   960 basis functions,  1632 primitive gaussians,  1004 cartesian basis functions
    73 alpha electrons       73 beta electrons
       nuclear repulsion energy      1494.3575060376 Hartrees.
 IExCor=  402 DFT=T Ex+Corr=B3LYP ExCW=0 ScaHFX=  0.200000
 ScaDFX=  0.800000  0.720000  1.000000  0.810000 ScalE2=  1.000000  1.000000
 IRadAn=      5 IRanWt=     -1 IRanGd=            0 ICorTp=0 IEmpDi=131
 NAtoms=   72 NActive=   72 NUniq=   40 SFac= 3.24D+00 NAtFMM=   60 NAOKFM=T Big=F
 Integral buffers will be    131072 words long.
 Raffenetti 2 integral format.
 Two-electron integral symmetry is turned on.
 R6Disp:  Grimme-D3 Dispersion energy=       -0.0303938888 Hartrees.
 Nuclear repulsion after empirical dispersion term =     1494.3271121488 Hartrees.
 No density basis found on file    718.
 Leave Link  301 at Wed Sep 27 16:40:04 2023, MaxMem=  3221225472 cpu:               2.5 elap:               0.1
 (Enter /home/center/opt/aarch64/apps/gaussian16/c01/g16/l302.exe)
 NPDir=0 NMtPBC=     1 NCelOv=     1 NCel=       1 NClECP=     1 NCelD=      1
         NCelK=      1 NCelE2=     1 NClLst=     1 CellRange=     0.0.
 One-electron integrals computed using PRISM.
 One-electron integral symmetry used in STVInt
 NBasis=   960 RedAO= T EigKep=  3.73D-05  NBF=   504   456
 NBsUse=   960 1.00D-06 EigRej= -1.00D+00 NBFU=   504   456
 Precomputing XC quadrature grid using
 IXCGrd= 4 IRadAn=           5 IRanWt=          -1 IRanGd=           0 AccXCQ= 0.00D+00.
 Generated NRdTot=       0 NPtTot=           0 NUsed=           0 NTot=          32
 NSgBfM=   991   991   991   991   991 MxSgAt=    72 MxSgA2=    72.
 Leave Link  302 at Wed Sep 27 16:40:08 2023, MaxMem=  3221225472 cpu:              59.7 elap:               1.8
 (Enter /home/center/opt/aarch64/apps/gaussian16/c01/g16/l303.exe)
 DipDrv:  MaxL=1.
 Leave Link  303 at Wed Sep 27 16:40:11 2023, MaxMem=  3221225472 cpu:              12.2 elap:               0.3
 (Enter /home/center/opt/aarch64/apps/gaussian16/c01/g16/l401.exe)
 ExpMin= 1.03D-01 ExpMax= 4.56D+03 ExpMxC= 6.82D+02 IAcc=3 IRadAn=         5 AccDes= 0.00D+00
 Harris functional with IExCor=  402 and IRadAn=       5 diagonalized for initial guess.
 HarFok:  IExCor=  402 AccDes= 0.00D+00 IRadAn=         5 IDoV= 1 UseB2=F ITyADJ=14
 ICtDFT=  3500011 ScaDFX=  1.000000  1.000000  1.000000  1.000000
 FoFCou: FMM=F IPFlag=           0 FMFlag=      100000 FMFlg1=        2000
         NFxFlg=           0 DoJE=T BraDBF=F KetDBF=T FulRan=T
         wScrn=  0.000000 ICntrl=       500 IOpCl=  0 I1Cent=   200000004 NGrid=           0
         NMat0=    1 NMatS0=      1 NMatT0=    0 NMatD0=    1 NMtDS0=    0 NMtDT0=    0
 Petite list used in FoFCou.
 Harris En= -847.067446250041    
 JPrj=0 DoOrth=F DoCkMO=F.
 Initial guess orbital symmetries:
       Occupied  (A") (A') (A') (A") (A") (A') (A") (A') (A') (A")
                 (A") (A') (A') (A') (A") (A') (A") (A') (A") (A')
                 (A') (A") (A') (A") (A') (A") (A') (A') (A") (A')
                 (A") (A") (A') (A') (A") (A") (A') (A") (A') (A')
                 (A') (A") (A") (A") (A') (A') (A") (A') (A') (A")
                 (A') (A") (A") (A') (A') (A") (A') (A") (A') (A")
                 (A") (A') (A') (A") (A') (A") (A') (A") (A') (A')
                 (A") (A") (A')
       Virtual   (A') (A") (A") (A') (A') (A") (A') (A") (A') (A")
                 (A') (A') (A") (A') (A") (A') (A') (A") (A') (A")
                 (A") (A") (A') (A') (A') (A") (A') (A') (A") (A')
                 (A') (A") (A") (A') (A') (A") (A') (A") (A") (A')
                 (A') (A") (A") (A') (A") (A') (A") (A') (A") (A')
                 (A') (A") (A') (A') (A") (A') (A") (A") (A') (A')
                 (A') (A") (A') (A') (A") (A") (A") (A") (A') (A')
                 (A") (A') (A") (A') (A') (A') (A') (A") (A") (A')
                 (A') (A") (A") (A") (A') (A') (A") (A") (A') (A')
                 (A") (A') (A") (A") (A') (A') (A') (A') (A') (A")
                 (A") (A') (A") (A') (A") (A") (A') (A") (A') (A')
                 (A") (A') (A') (A") (A') (A") (A") (A") (A') (A")
                 (A') (A") (A') (A") (A') (A') (A') (A") (A") (A')
                 (A') (A") (A') (A') (A") (A') (A") (A") (A') (A')
                 (A') (A") (A") (A') (A') (A") (A") (A") (A') (A")
                 (A') (A') (A") (A') (A') (A") (A") (A') (A') (A")
                 (A") (A') (A') (A') (A") (A") (A') (A") (A') (A")
                 (A') (A") (A") (A') (A') (A') (A") (A") (A') (A")
                 (A') (A") (A') (A") (A") (A') (A') (A") (A') (A")
                 (A') (A') (A') (A') (A") (A') (A") (A') (A") (A')
                 (A") (A") (A") (A') (A") (A') (A') (A") (A") (A')
                 (A') (A") (A") (A') (A") (A') (A") (A') (A') (A")
                 (A") (A') (A') (A") (A') (A") (A') (A') (A") (A')
                 (A") (A') (A") (A') (A") (A') (A") (A") (A') (A')
                 (A") (A') (A") (A') (A') (A") (A") (A') (A") (A")
                 (A') (A") (A') (A') (A') (A") (A") (A') (A') (A")
                 (A") (A') (A') (A") (A') (A') (A") (A") (A') (A")
                 (A') (A') (A") (A") (A') (A") (A") (A') (A') (A')
                 (A") (A") (A') (A") (A") (A') (A') (A") (A") (A')
                 (A') (A') (A') (A") (A') (A") (A") (A') (A') (A")
                 (A') (A") (A') (A') (A') (A") (A") (A") (A") (A')
                 (A') (A") (A') (A") (A') (A") (A') (A") (A') (A")
                 (A') (A") (A") (A') (A') (A") (A') (A') (A") (A')
                 (A') (A') (A") (A') (A") (A') (A") (A') (A") (A")
                 (A') (A") (A") (A') (A") (A") (A') (A') (A') (A')
                 (A") (A') (A") (A') (A') (A") (A') (A") (A') (A")
                 (A') (A') (A") (A') (A") (A') (A") (A') (A") (A')
                 (A") (A") (A") (A") (A') (A") (A') (A') (A") (A')
                 (A") (A') (A') (A") (A') (A") (A') (A') (A") (A")
                 (A') (A") (A') (A") (A') (A") (A') (A') (A") (A")
                 (A') (A') (A") (A") (A') (A") (A") (A') (A') (A")
                 (A') (A") (A') (A') (A') (A") (A") (A') (A') (A")
                 (A") (A') (A") (A") (A') (A") (A") (A") (A') (A")
                 (A') (A') (A') (A') (A') (A") (A") (A') (A') (A")
                 (A') (A") (A') (A') (A") (A') (A") (A") (A") (A')
                 (A") (A') (A') (A") (A") (A") (A') (A") (A') (A')
                 (A") (A') (A') (A") (A") (A') (A') (A") (A') (A")
                 (A') (A') (A") (A") (A") (A') (A") (A') (A') (A")
                 (A") (A') (A") (A') (A') (A") (A') (A") (A') (A")
                 (A") (A') (A") (A') (A') (A') (A") (A") (A') (A")
                 (A") (A') (A') (A") (A') (A") (A") (A') (A') (A')
                 (A") (A") (A") (A') (A') (A") (A') (A') (A") (A")
                 (A') (A") (A') (A') (A") (A') (A") (A') (A") (A')
                 (A") (A') (A') (A") (A") (A') (A') (A") (A') (A")
                 (A') (A') (A") (A") (A') (A') (A") (A') (A") (A")
                 (A') (A') (A") (A') (A') (A") (A') (A") (A") (A')
                 (A') (A") (A") (A') (A') (A") (A") (A') (A') (A")
                 (A') (A") (A') (A') (A") (A') (A") (A') (A") (A')
                 (A") (A') (A") (A") (A') (A") (A") (A') (A") (A')
                 (A') (A') (A') (A") (A') (A") (A') (A") (A") (A')
                 (A') (A") (A") (A") (A') (A') (A") (A') (A") (A')
                 (A") (A') (A') (A") (A') (A") (A') (A") (A') (A')
                 (A") (A') (A") (A") (A') (A") (A') (A") (A') (A")
                 (A") (A') (A") (A") (A") (A') (A') (A') (A') (A")
                 (A') (A") (A') (A") (A") (A') (A') (A") (A') (A")
                 (A') (A") (A') (A") (A') (A") (A") (A") (A') (A')
                 (A') (A") (A") (A") (A') (A") (A') (A') (A") (A')
                 (A') (A") (A") (A') (A") (A') (A') (A") (A') (A')
                 (A") (A') (A") (A') (A') (A") (A') (A') (A") (A")
                 (A') (A") (A') (A') (A") (A") (A") (A') (A') (A')
[...]
                 (A") (A') (A") (A') (A") (A') (A") (A") (A') (A")
                 (A') (A') (A") (A') (A") (A') (A') (A') (A') (A")
                 (A") (A") (A") (A') (A') (A") (A') (A") (A') (A")
                 (A') (A') (A') (A") (A') (A") (A") (A') (A') (A")
                 (A") (A') (A') (A") (A') (A") (A") (A") (A') (A")
                 (A') (A') (A') (A') (A') (A") (A') (A') (A") (A")
                 (A") (A') (A') (A') (A") (A') (A") (A") (A") (A')
                 (A') (A") (A') (A") (A") (A') (A") (A') (A') (A')
                 (A') (A') (A") (A") (A") (A") (A') (A") (A') (A")
                 (A') (A') (A') (A") (A") (A') (A') (A") (A') (A")
                 (A') (A") (A") (A") (A') (A') (A") (A') (A') (A")
                 (A') (A") (A") (A') (A') (A") (A') (A") (A') (A")
                 (A") (A') (A') (A') (A') (A") (A") (A") (A') (A")
                 (A') (A") (A') (A") (A') (A') (A") (A") (A') (A")
                 (A') (A") (A') (A") (A') (A') (A") (A') (A") (A")
                 (A') (A") (A') (A') (A") (A") (A') (A") (A') (A")
                 (A') (A') (A") (A') (A') (A") (A") (A') (A') (A')
                 (A") (A') (A") (A") (A") (A") (A') (A") (A') (A')
                 (A") (A') (A") (A') (A') (A') (A") (A') (A") (A')
                 (A") (A") (A') (A') (A") (A") (A') (A') (A") (A')
                 (A') (A') (A') (A") (A") (A") (A") (A') (A') (A")
                 (A') (A") (A") (A') (A") (A') (A") (A') (A") (A')
                 (A") (A') (A') (A") (A') (A") (A") (A') (A') (A")
                 (A") (A') (A') (A") (A") (A') (A") (A") (A") (A')
                 (A') (A") (A') (A') (A") (A') (A') (A") (A') (A")
                 (A") (A') (A") (A') (A') (A") (A") (A") (A') (A')
                 (A") (A') (A') (A") (A") (A") (A') (A") (A') (A')
                 (A") (A') (A") (A') (A") (A') (A') (A') (A") (A')
                 (A") (A") (A') (A') (A") (A") (A') (A") (A') (A")
                 (A') (A') (A") (A") (A') (A') (A") (A') (A') (A')
                 (A") (A") (A') (A") (A') (A") (A') (A") (A') (A')
                 (A') (A") (A") (A") (A') (A") (A') (A') (A') (A")
                 (A") (A') (A") (A') (A') (A") (A') (A") (A") (A')
                 (A') (A") (A') (A") (A") (A') (A') (A") (A') (A")
                 (A') (A") (A') (A") (A') (A") (A") (A') (A') (A")
                 (A') (A") (A') (A') (A") (A") (A') (A") (A') (A')
                 (A") (A') (A") (A') (A') (A") (A') (A") (A') (A")
                 (A") (A') (A") (A') (A") (A') (A") (A') (A') (A")
                 (A") (A') (A") (A') (A') (A") (A") (A') (A') (A")
                 (A') (A") (A') (A") (A') (A') (A")
 The electronic state is 1-A'.
 Alpha  occ. eigenvalues --  -10.18931 -10.18930 -10.18896 -10.18895 -10.18848
 Alpha  occ. eigenvalues --  -10.18848 -10.18813 -10.18813 -10.17956 -10.17955
 Alpha  occ. eigenvalues --  -10.17920 -10.17920 -10.17919 -10.17919 -10.17875
 Alpha  occ. eigenvalues --  -10.17875 -10.17863 -10.17863 -10.17808 -10.17808
 Alpha  occ. eigenvalues --  -10.17781 -10.17781  -0.89340  -0.87865  -0.85549
 Alpha  occ. eigenvalues --   -0.82415  -0.79820  -0.78521  -0.78314  -0.75991
 Alpha  occ. eigenvalues --   -0.74255  -0.72901  -0.69196  -0.67344  -0.62728
 Alpha  occ. eigenvalues --   -0.62370  -0.61108  -0.59964  -0.59301  -0.57689
 Alpha  occ. eigenvalues --   -0.52709  -0.52573  -0.52293  -0.49654  -0.48513
 Alpha  occ. eigenvalues --   -0.47160  -0.46110  -0.45590  -0.45476  -0.43928
 Alpha  occ. eigenvalues --   -0.43182  -0.42578  -0.41808  -0.41572  -0.41386
 Alpha  occ. eigenvalues --   -0.40692  -0.40405  -0.39579  -0.38193  -0.36732
 Alpha  occ. eigenvalues --   -0.36341  -0.35550  -0.34094  -0.33809  -0.33058
 Alpha  occ. eigenvalues --   -0.32930  -0.31612  -0.29665  -0.28406  -0.26623
 Alpha  occ. eigenvalues --   -0.24364  -0.22582  -0.17855
 Alpha virt. eigenvalues --   -0.09755  -0.04464  -0.02747  -0.00147   0.02073
 Alpha virt. eigenvalues --    0.02370   0.03189   0.04746   0.04859   0.04871
 Alpha virt. eigenvalues --    0.06161   0.06575   0.07968   0.08162   0.08303
 Alpha virt. eigenvalues --    0.09607   0.10049   0.11524   0.11533   0.13796
 Alpha virt. eigenvalues --    0.14111   0.14670   0.18092   0.18194   0.18832
 Alpha virt. eigenvalues --    0.19391   0.22815   0.23002   0.24379   0.24942
 Alpha virt. eigenvalues --    0.25581   0.27528   0.27575   0.28012   0.28228
 Alpha virt. eigenvalues --    0.28947   0.29389   0.30158   0.30759   0.31175
 Alpha virt. eigenvalues --    0.32897   0.34528   0.36420   0.36484   0.37134
 Alpha virt. eigenvalues --    0.37503   0.37629   0.37651   0.38116   0.38643
 Alpha virt. eigenvalues --    0.39094   0.39439   0.39739   0.40236   0.40435
 Alpha virt. eigenvalues --    0.41918   0.41926   0.41940   0.42289   0.42318
 Alpha virt. eigenvalues --    0.42643   0.43748   0.44233   0.44835   0.45295
 Alpha virt. eigenvalues --    0.45683   0.45924   0.45953   0.46379   0.47165
 Alpha virt. eigenvalues --    0.47805   0.47809   0.47978   0.48073   0.48231
 Alpha virt. eigenvalues --    0.48568   0.49414   0.49572   0.51377   0.51846
 Alpha virt. eigenvalues --    0.52370   0.53118   0.53671   0.55998   0.57923
 Alpha virt. eigenvalues --    0.57955   0.59048   0.59201   0.60433   0.60585
 Alpha virt. eigenvalues --    0.60693   0.61101   0.61690   0.62105   0.62173
 Alpha virt. eigenvalues --    0.63432   0.63481   0.64458   0.64535   0.65533
 Alpha virt. eigenvalues --    0.66693   0.66910   0.67680   0.67724   0.70658
 Alpha virt. eigenvalues --    0.71305   0.71405   0.71494   0.72803   0.73989
 Alpha virt. eigenvalues --    0.75405   0.75894   0.76289   0.77801   0.77809
 Alpha virt. eigenvalues --    0.78943   0.79160   0.79723   0.81162   0.81509
 Alpha virt. eigenvalues --    0.82881   0.83001   0.84383   0.84585   0.84713
 Alpha virt. eigenvalues --    0.88087   0.89711   0.89765   0.91536   0.92083
 Alpha virt. eigenvalues --    0.92578   0.93749   0.95806   0.96107   0.96442
 Alpha virt. eigenvalues --    0.96590   0.96905   0.98547   1.00356   1.01118
 Alpha virt. eigenvalues --    1.02686   1.03027   1.03354   1.04405   1.05244
 Alpha virt. eigenvalues --    1.05439   1.05525   1.05950   1.07395   1.07547
 Alpha virt. eigenvalues --    1.07686   1.08438   1.10005   1.10036   1.12070
 Alpha virt. eigenvalues --    1.13223   1.13544   1.13650   1.14526   1.15341
 Alpha virt. eigenvalues --    1.17432   1.18332   1.19657   1.20432   1.23014
 Alpha virt. eigenvalues --    1.23618   1.27884   1.28234   1.30579   1.32076
 Alpha virt. eigenvalues --    1.32743   1.34942   1.37641   1.39236   1.39896
 Alpha virt. eigenvalues --    1.39942   1.40725   1.42751   1.43476   1.43554
 Alpha virt. eigenvalues --    1.45057   1.46086   1.47119   1.47538   1.48841
 Alpha virt. eigenvalues --    1.49280   1.49417   1.50258   1.50674   1.52268
 Alpha virt. eigenvalues --    1.52650   1.53402   1.54331   1.54372   1.54781
 Alpha virt. eigenvalues --    1.54807   1.57107   1.57715   1.58569   1.59882
 Alpha virt. eigenvalues --    1.60106   1.62692   1.63242   1.64856   1.66641
 Alpha virt. eigenvalues --    1.69292   1.69605   1.69709   1.70649   1.71804
 Alpha virt. eigenvalues --    1.72459   1.72619   1.73075   1.73096   1.73680
 Alpha virt. eigenvalues --    1.77494   1.78519   1.79157   1.79419   1.80511
 Alpha virt. eigenvalues --    1.81616   1.81887   1.82058   1.83581   1.84039
 Alpha virt. eigenvalues --    1.85487   1.87392   1.87456   1.87577   1.87728
 Alpha virt. eigenvalues --    1.88131   1.88613   1.90743   1.91387   1.92190
 Alpha virt. eigenvalues --    1.92193   1.92572   1.92670   1.93517   1.93938
 Alpha virt. eigenvalues --    1.94544   1.95483   1.97262   1.99429   2.00088
 Alpha virt. eigenvalues --    2.00602   2.01362   2.03019   2.05757   2.08293
 Alpha virt. eigenvalues --    2.09111   2.09256   2.09792   2.12192   2.14098
 Alpha virt. eigenvalues --    2.15528   2.15584   2.17200   2.19751   2.20833
 Alpha virt. eigenvalues --    2.21576   2.22525   2.23381   2.24503   2.26441
 Alpha virt. eigenvalues --    2.26972   2.27242   2.27719   2.28046   2.29391
 Alpha virt. eigenvalues --    2.33301   2.35725   2.39155   2.39384   2.40817
 Alpha virt. eigenvalues --    2.42649   2.43076   2.45776   2.45994   2.46870
 Alpha virt. eigenvalues --    2.51623   2.51954   2.53354   2.53485   2.55138
 Alpha virt. eigenvalues --    2.56159   2.58701   2.58838   2.59764   2.59776
 Alpha virt. eigenvalues --    2.60682   2.61147   2.61719   2.62222   2.63349
 Alpha virt. eigenvalues --    2.63999   2.64478   2.66054   2.66794   2.67121
 Alpha virt. eigenvalues --    2.67374   2.68356   2.68872   2.68876   2.69372
 Alpha virt. eigenvalues --    2.69557   2.69907   2.70083   2.70281   2.73482
 Alpha virt. eigenvalues --    2.74771   2.74836   2.76066   2.77101   2.77577
 Alpha virt. eigenvalues --    2.78232   2.78455   2.78850   2.80822   2.82359
 Alpha virt. eigenvalues --    2.85535   2.85993   2.86737   2.87294   2.90966
 Alpha virt. eigenvalues --    2.91783   2.92195   2.93676   2.95232   2.95887
 Alpha virt. eigenvalues --    2.99270   2.99858   3.03165   3.05604   3.06852
 Alpha virt. eigenvalues --    3.07371   3.15988   3.16029   3.16647   3.19843
 Alpha virt. eigenvalues --    3.20017   3.23601   3.29134   3.29680   3.31610
 Alpha virt. eigenvalues --    3.35095   3.35458   3.35677   3.35858   3.38023
 Alpha virt. eigenvalues --    3.39887   3.41413   3.44960   3.45362   3.47993
 Alpha virt. eigenvalues --    3.48278   3.50401   3.53073   3.57439   3.58649
 Alpha virt. eigenvalues --    3.61466   3.62620   3.63208   3.63698   3.65910
 Alpha virt. eigenvalues --    3.67534   3.67678   4.00384   4.00442   4.01859
 Alpha virt. eigenvalues --    4.02182   4.16133   4.16678   4.17360   4.21240
 Alpha virt. eigenvalues --    4.22396   4.22517   4.25488   4.38492   4.62290
 Alpha virt. eigenvalues --    4.79179   4.79740   4.80562   4.82562   4.83014
 Alpha virt. eigenvalues --   23.39176  23.54541  23.69085  23.77378  23.80419
 Alpha virt. eigenvalues --   23.81537  23.86099  23.89067  23.89154  23.92210
 Alpha virt. eigenvalues --   23.97563  23.98365  24.09049  24.09932  24.10529
 Alpha virt. eigenvalues --   24.12220  24.13779  24.14375  24.15775  24.15810
 Alpha virt. eigenvalues --   24.20452  24.20497
          Condensed to atoms (all electrons):
 Mulliken charges:
               1
     1  C    0.000000
     2  C    0.000000
     3  C    0.000000
     4  C    0.000000
     5  C    0.000000
     6  C    0.000000
     7  C    0.000000
     8  C    0.000000
     9  C    0.000000
    10  C    0.000000
    11  H    0.000000
    12  H    0.000000
    13  H    0.000000
    14  H    0.000000
    15  H    0.000000
    16  H    0.000000
    17  C    0.000000
    18  C    0.000000
    19  C    0.000000
    20  C    0.000000
    21  H    0.000000
    22  H    0.000000
    23  C    0.000000
    24  C    0.000000
    25  C    0.000000
    26  C    0.000000
    27  H    0.000000
    28  H    0.000000
    29  C    0.000000
    30  C    0.000000
    31  C    0.000000
    32  C    0.000000
    33  H    0.000000
    34  H    0.000000
    35  H    0.000000
    36  H    0.000000
    37  C   -0.059168
    38  C   -0.059168
    39  C   -0.055977
    40  C   -0.055977
    41  C   -0.092198
    42  C   -0.092198
    43  C   -0.016525
    44  C   -0.054498
    45  C   -0.016525
    46  C   -0.054498
    47  H    0.082122
    48  H    0.074853
    49  H    0.074853
    50  H    0.082122
    51  H    0.094847
    52  H    0.094847
    53  C   -0.020341
    54  C   -0.054498
    55  C   -0.020341
    56  C   -0.054498
    57  H    0.073428
    58  H    0.073428
    59  C   -0.016525
    60  C   -0.059168
    61  C   -0.016525
    62  C   -0.059168
    63  H    0.074853
    64  H    0.074853
    65  C   -0.055977
    66  C   -0.092198
    67  C   -0.055977
    68  C   -0.092198
    69  H    0.082122
    70  H    0.094847
    71  H    0.094847
    72  H    0.082122
 Sum of Mulliken charges =   0.00000
 Mulliken charges with hydrogens summed into heavy atoms:
               1
     1  C    0.000000
     2  C    0.000000
     3  C    0.000000
     4  C    0.000000
     5  C    0.000000
     6  C    0.000000
     7  C    0.000000
     8  C    0.000000
     9  C    0.000000
    10  C    0.000000
    17  C    0.000000
    18  C    0.000000
    19  C    0.000000
    20  C    0.000000
    23  C    0.000000
    24  C    0.000000
    25  C    0.000000
    26  C    0.000000
    29  C    0.000000
    30  C    0.000000
    31  C    0.000000
    32  C    0.000000
    37  C   -0.059168
    38  C   -0.059168
    39  C    0.026144
    40  C    0.026144
    41  C    0.002649
    42  C    0.002649
    43  C    0.058328
    44  C   -0.054498
    45  C    0.058328
    46  C   -0.054498
    53  C    0.053087
    54  C   -0.054498
    55  C    0.053087
    56  C   -0.054498
    59  C    0.058328
    60  C   -0.059168
    61  C    0.058328
    62  C   -0.059168
    65  C    0.026144
    66  C    0.002649
    67  C    0.026144
    68  C    0.002649
         Mulliken charges condensed to fragments:
      1      0.000000
      2      0.000000
 Electronic spatial extent (au):  <R**2>=          14805.2137
 Charge=              0.0000 electrons
 Dipole moment (field-independent basis, Debye):
    X=              0.0000    Y=              0.0000    Z=              0.0000  Tot=              0.0000
 Quadrupole moment (field-independent basis, Debye-Ang):
   XX=           -136.3921   YY=           -110.7480   ZZ=           -109.0115
   XY=              0.0000   XZ=              0.0000   YZ=              0.0000
 Traceless Quadrupole moment (field-independent basis, Debye-Ang):
   XX=            -17.6749   YY=              7.9692   ZZ=              9.7057
   XY=              0.0000   XZ=              0.0000   YZ=              0.0000
 Octapole moment (field-independent basis, Debye-Ang**2):
  XXX=            940.3266  YYY=            763.5292  ZZZ=              0.0000  XYY=            254.5097
  XXY=            313.4422  XXZ=              0.0000  XZZ=            250.5190  YZZ=            250.5189
  YYZ=              0.0000  XYZ=              0.0000
 Hexadecapole moment (field-independent basis, Debye-Ang**3):
 XXXX=          -4476.3273 YYYY=          -4626.0451 ZZZZ=         -10461.4324 XXXY=          -2160.9617
 XXXZ=              0.0000 YYYX=          -1754.6641 YYYZ=              0.0000 ZZZX=              0.0000
 ZZZY=              0.0000 XXYY=          -1561.6239 XXZZ=          -2783.6488 YYZZ=          -2544.9312
 XXYZ=              0.0000 YYXZ=              0.0000 ZZXY=           -575.7168
 N-N= 1.494327112429D+03 E-N=-4.953709176421D+03  KE= 8.433374905210D+02
 Symmetry A'   KE= 4.567052305497D+02
 Symmetry A"   KE= 3.866322599712D+02
 No NMR shielding tensors so no spin-rotation constants.
 Leave Link  601 at Wed Sep 27 16:57:11 2023, MaxMem=  3221225472 cpu:              18.7 elap:               0.5
 (Enter /home/center/opt/aarch64/apps/gaussian16/c01/g16/l122.exe)
 CPIOFr:  IOpCl= 0 IRwI=-1 IRwCP=  731 ICalc=  4 LCPTot=     1419224 Len1MO=     3708034 IndFrg=    19959394
 Restoring MOs from calculation   1 to rwf.
 CPIOFr:  IOpCl= 0 IRwI=-2 IRwCP=  731 ICalc=  0 LCPTot=     1419224 Len1MO=     3708034 IndFrg=     5127258
 Counterpoise corrected energy =   -1694.044842451930
                   BSSE energy =       0.000618056733
              sum of fragments =   -1694.039683044254
           complexation energy =      -3.63 kcal/mole (raw)
           complexation energy =      -3.24 kcal/mole (corrected)
 Leave Link  122 at Wed Sep 27 16:57:14 2023, MaxMem=  3221225472 cpu:               8.3 elap:               0.4
 (Enter /home/center/opt/aarch64/apps/gaussian16/c01/g16/l9999.exe)

 Test job not archived.
 1\1\GINC-FX0493\SP\RB3LYP\6-311G(d,p)\C44H28\Z40145W\27-Sep-2023\0\\#P
  TEST b3lyp/6-311G** EmpiricalDispersion=GD3 counterpoise=2\\pentacene
 _A1=0_A2=0_A3=45_p2\\0,1\C,0,-0.5039478476,0.5239478476,-3.6612755801\
 C,0,0.5239480325,-0.5039480325,-3.6612755629\C,0,-0.9861248463,1.00612
 48463,-4.9235927708\C,0,1.0061250889,-0.9861250889,-4.9235926697\C,0,-
 0.4963213507,0.5163213507,-6.096356521\C,0,0.5163216812,-0.4963216812,
 -6.0963564796\C,0,-0.9844684311,1.0044684311,-2.4533174875\C,0,-0.5044
 88426,0.524488426,-1.2140288145\C,0,1.0044685359,-0.9844685359,-2.4533
 173917\C,0,0.5244885437,-0.5044885437,-1.2140288362\H,0,-1.7533559667,
 1.7733559667,-4.9232600459\H,0,-1.7521866813,1.7721866813,-2.453928581
 5\H,0,1.7721859268,-1.7521859268,-2.4539284818\H,0,1.7733558421,-1.753
 3558421,-4.9232597785\H,0,0.8905568758,-0.8705568758,-7.0425276922\H,0
 ,-0.8705565046,0.8905565046,-7.042527775\C,0,-0.9848184961,1.004818496
 1,0.0099998782\C,0,-0.5044883957,0.5244883957,1.2340295553\C,0,1.00481
 85643,-0.9848185643,0.0099998696\C,0,0.5244885146,-0.5044885146,1.2340
 295261\H,0,-1.7524699697,1.7724699697,0.0099999205\H,0,1.772468921,-1.
 752468921,0.0099999641\C,0,-0.9844683048,1.0044683048,2.4733171385\C,0
 ,-0.5039477114,0.5239477114,3.681276331\C,0,1.0044684211,-0.9844684211
 ,2.4733170835\C,0,0.5239479079,-0.5039479079,3.6812763217\H,0,-1.75218
 65527,1.7721865527,2.4739285326\H,0,1.7721858092,-1.7521858092,2.47392
 83796\C,0,-0.9861245177,1.0061245177,4.9435920588\C,0,-0.4963209372,0.
 5163209372,6.116356633\C,0,1.0061247659,-0.9861247659,4.9435919377\C,0
 ,0.5163212637,-0.4963212637,6.1163566075\H,0,-1.7533556504,1.773355650
 4,4.9432601504\H,0,-0.8705567426,0.8905567426,7.0625274368\H,0,0.89055
 70967,-0.8705570967,7.0625272142\H,0,1.7733555414,-1.7533555414,4.9432
 599297\C,0,5.9960521524,0.5239478476,-3.6612755801\C,0,7.0239480325,-0
 .5039480325,-3.6612755629\C,0,5.5138751537,1.0061248463,-4.9235927708\
 C,0,7.5061250889,-0.9861250889,-4.9235926697\C,0,6.0036786493,0.516321
 3507,-6.096356521\C,0,7.0163216812,-0.4963216812,-6.0963564796\C,0,5.5
 155315689,1.0044684311,-2.4533174875\C,0,5.995511574,0.524488426,-1.21
 40288145\C,0,7.5044685359,-0.9844685359,-2.4533173917\C,0,7.0244885437
 ,-0.5044885437,-1.2140288362\H,0,4.7466440333,1.7733559667,-4.92326004
 59\H,0,4.7478133187,1.7721866813,-2.4539285815\H,0,8.2721859268,-1.752
 1859268,-2.4539284818\H,0,8.2733558421,-1.7533558421,-4.9232597785\H,0
 ,7.3905568758,-0.8705568758,-7.0425276922\H,0,5.6294434954,0.890556504
 6,-7.042527775\C,0,5.5151815039,1.0048184961,0.0099998782\C,0,5.995511
 6043,0.5244883957,1.2340295553\C,0,7.5048185643,-0.9848185643,0.009999
 8696\C,0,7.0244885146,-0.5044885146,1.2340295261\H,0,4.7475300303,1.77
 24699697,0.0099999205\H,0,8.272468921,-1.752468921,0.0099999641\C,0,5.
 5155316952,1.0044683048,2.4733171385\C,0,5.9960522886,0.5239477114,3.6
 81276331\C,0,7.5044684211,-0.9844684211,2.4733170835\C,0,7.0239479079,
 -0.5039479079,3.6812763217\H,0,4.7478134473,1.7721865527,2.4739285326\
 H,0,8.2721858092,-1.7521858092,2.4739283796\C,0,5.5138754823,1.0061245
 177,4.9435920588\C,0,6.0036790628,0.5163209372,6.116356633\C,0,7.50612
 47659,-0.9861247659,4.9435919377\C,0,7.0163212637,-0.4963212637,6.1163
 566075\H,0,4.7466443496,1.7733556504,4.9432601504\H,0,5.6294432574,0.8
 905567426,7.0625274368\H,0,7.3905570967,-0.8705570967,7.0625272142\H,0
 ,8.2733555414,-1.7533555414,4.9432599297\\Version=Fujitsu-Arm-G16RevC.
 01\State=1-A'\HF=-847.0198415\RMSD=3.180e-09\Dipole=-0.0000009,0.00000
 1,0.\Quadrupole=-8.2407719,-6.0285037,14.2692757,-17.9698607,0.,0.\PG=
 CS [SG(C4H4),X(C40H24)]\\@


 THOSE WHO ASPIRE NOT TO GUESS AND DIVINE,
 BUT TO DISCOVER AND KNOW, WHO PROPOSE NOT TO DEVISE 
 MIMIC AND FABULOUS WORLDS OF THEIR OWN, BUT TO 
 EXAMINE AND DISSECT THE NATURE OF THIS VERY WORLD 
 ITSELF, MUST GO TO THE FACTS THEMSELVES FOR EVERYTHING.

                               -- FRANCIS BACON, 1620
 Job cpu time:       0 days  3 hours  7 minutes 27.4 seconds.
 Elapsed time:       0 days  0 hours  4 minutes 54.2 seconds.
 File lengths (MBytes):  RWF=    718 Int=      0 D2E=      0 Chk=    208 Scr=      1
 Normal termination of Gaussian 16 at Wed Sep 27 16:57:20 2023.
