 Entering Gaussian System, Link 0=g16
 Initial command:
 /home/center/opt/aarch64/apps/gaussian16/c01/g16/l1.exe "/data/tmp/Gtmp/1006984/Gau-49.inp" -scrdir="/data/tmp/Gtmp/1006984/"
 Entering Link 1 = /home/center/opt/aarch64/apps/gaussian16/c01/g16/l1.exe PID=        50.
  
 Copyright (c) 1988-2019, Gaussian, Inc.  All Rights Reserved.
  
 This is part of the Gaussian(R) 16 program.  It is based on
 the Gaussian(R) 09 system (copyright 2009, Gaussian, Inc.),
 the Gaussian(R) 03 system (copyright 2003, Gaussian, Inc.),
 the Gaussian(R) 98 system (copyright 1998, Gaussian, Inc.),
 the Gaussian(R) 94 system (copyright 1995, Gaussian, Inc.),
 the Gaussian 92(TM) system (copyright 1992, Gaussian, Inc.),
 the Gaussian 90(TM) system (copyright 1990, Gaussian, Inc.),
 the Gaussian 88(TM) system (copyright 1988, Gaussian, Inc.),
 the Gaussian 86(TM) system (copyright 1986, Carnegie Mellon
 University), and the Gaussian 82(TM) system (copyright 1983,
 Carnegie Mellon University). Gaussian is a federally registered
 trademark of Gaussian, Inc.
  
 This software contains proprietary and confidential information,
 including trade secrets, belonging to Gaussian, Inc.
  
 This software is provided under written license and may be
 used, copied, transmitted, or stored only in accord with that
 written license.
  
 The following legend is applicable only to US Government
 contracts under FAR:
  
                    RESTRICTED RIGHTS LEGEND
  
 Use, reproduction and disclosure by the US Government is
 subject to restrictions as set forth in subparagraphs (a)
 and (c) of the Commercial Computer Software - Restricted
 Rights clause in FAR 52.227-19.
  
 Gaussian, Inc.
 340 Quinnipiac St., Bldg. 40, Wallingford CT 06492
  
  
 ---------------------------------------------------------------
 Warning -- This program may not be used in any manner that
 competes with the business of Gaussian, Inc. or will provide
 assistance to any competitor of Gaussian, Inc.  The licensee
 of this program is prohibited from giving any competitor of
 Gaussian, Inc. access to this program.  By using this program,
 the user acknowledges that Gaussian, Inc. is engaged in the
 business of creating and licensing software in the field of
 computational chemistry and represents and warrants to the
 licensee that it is not a competitor of Gaussian, Inc. and that
 it will not use this program in any manner prohibited above.
 ---------------------------------------------------------------
  

 Cite this work as:
 Gaussian 16, Revision C.01,
 M. J. Frisch, G. W. Trucks, H. B. Schlegel, G. E. Scuseria, 
 M. A. Robb, J. R. Cheeseman, G. Scalmani, V. Barone, 
 G. A. Petersson, H. Nakatsuji, X. Li, M. Caricato, A. V. Marenich, 
 J. Bloino, B. G. Janesko, R. Gomperts, B. Mennucci, H. P. Hratchian, 
 J. V. Ortiz, A. F. Izmaylov, J. L. Sonnenberg, D. Williams-Young, 
 F. Ding, F. Lipparini, F. Egidi, J. Goings, B. Peng, A. Petrone, 
 T. Henderson, D. Ranasinghe, V. G. Zakrzewski, J. Gao, N. Rega, 
 G. Zheng, W. Liang, M. Hada, M. Ehara, K. Toyota, R. Fukuda, 
 J. Hasegawa, M. Ishida, T. Nakajima, Y. Honda, O. Kitao, H. Nakai, 
 T. Vreven, K. Throssell, J. A. Montgomery, Jr., J. E. Peralta, 
 F. Ogliaro, M. J. Bearpark, J. J. Heyd, E. N. Brothers, K. N. Kudin, 
 V. N. Staroverov, T. A. Keith, R. Kobayashi, J. Normand, 
 K. Raghavachari, A. P. Rendell, J. C. Burant, S. S. Iyengar, 
 J. Tomasi, M. Cossi, J. M. Millam, M. Klene, C. Adamo, R. Cammi, 
 J. W. Ochterski, R. L. Martin, K. Morokuma, O. Farkas, 
 J. B. Foresman, and D. J. Fox, Gaussian, Inc., Wallingford CT, 2019.
 
 ************************************************
 Gaussian 16:  Fujitsu-Arm-G16RevC.01  3-Jul-2019
                   27-Sep-2023 
 ************************************************
 %mem=24GB
 %nproc=42
 Will use up to   42 processors via shared memory.
 -------------------------------------------------------------
 #P TEST b3lyp/6-311G** EmpiricalDispersion=GD3 counterpoise=2
 -------------------------------------------------------------
 1/38=1,62=2,172=1/1;
 2/12=2,17=6,18=5,40=1/2;
 1/38=1,53=2,62=2,63=1/22;
 3/5=4,6=6,7=101,11=2,25=1,30=1,74=-5,124=31/1,2,3;
 4//1;
 5/5=2,38=5/2;
 6/7=2,8=2,9=2,10=2,28=1/1;
 1/53=2,62=2,63=1/22;
 3/5=7,6=11,7=101,11=2,25=1,30=1,74=-5,82=7,124=31/1,2,3;
 4//1;
 5/5=2,38=5/2;
 6/7=2,8=2,9=2,10=2,28=1/1;
 1/53=2,62=2,63=1/22(-4);
 99/5=1,9=1/99;
 Leave Link    1 at Wed Sep 27 16:57:32 2023, MaxMem=  3221225472 cpu:               6.2 elap:               0.2
 (Enter /home/center/opt/aarch64/apps/gaussian16/c01/g16/l101.exe)
 ----------------------------
 pentacene_A1=0_A2=0_A3=45_t1
 ----------------------------
 Symbolic Z-matrix:
 Charge =  0 Multiplicity = 1 in supermolecule
 Charge =  0 Multiplicity = 1 in fragment      1.
 Charge =  0 Multiplicity = 1 in fragment      2.
 C(Fragment=1)        -0.50395   0.52395  -3.66128 
 C(Fragment=1)         0.52395  -0.50395  -3.66128 
 C(Fragment=1)        -0.98612   1.00612  -4.92359 
 C(Fragment=1)         1.00613  -0.98613  -4.92359 
 C(Fragment=1)        -0.49632   0.51632  -6.09636 
 C(Fragment=1)         0.51632  -0.49632  -6.09636 
 C(Fragment=1)        -0.98447   1.00447  -2.45332 
 C(Fragment=1)        -0.50449   0.52449  -1.21403 
 C(Fragment=1)         1.00447  -0.98447  -2.45332 
 C(Fragment=1)         0.52449  -0.50449  -1.21403 
 H(Fragment=1)        -1.75336   1.77336  -4.92326 
 H(Fragment=1)        -1.75219   1.77219  -2.45393 
 H(Fragment=1)         1.77219  -1.75219  -2.45393 
 H(Fragment=1)         1.77336  -1.75336  -4.92326 
 H(Fragment=1)         0.89056  -0.87056  -7.04253 
 H(Fragment=1)        -0.87056   0.89056  -7.04253 
 C(Fragment=1)        -0.98482   1.00482   0.01 
 C(Fragment=1)        -0.50449   0.52449   1.23403 
 C(Fragment=1)         1.00482  -0.98482   0.01 
 C(Fragment=1)         0.52449  -0.50449   1.23403 
 H(Fragment=1)        -1.75247   1.77247   0.01 
 H(Fragment=1)         1.77247  -1.75247   0.01 
 C(Fragment=1)        -0.98447   1.00447   2.47332 
 C(Fragment=1)        -0.50395   0.52395   3.68128 
 C(Fragment=1)         1.00447  -0.98447   2.47332 
 C(Fragment=1)         0.52395  -0.50395   3.68128 
 H(Fragment=1)        -1.75219   1.77219   2.47393 
 H(Fragment=1)         1.77219  -1.75219   2.47393 
 C(Fragment=1)        -0.98612   1.00612   4.94359 
 C(Fragment=1)        -0.49632   0.51632   6.11636 
 C(Fragment=1)         1.00612  -0.98612   4.94359 
 C(Fragment=1)         0.51632  -0.49632   6.11636 
 H(Fragment=1)        -1.75336   1.77336   4.94326 
 H(Fragment=1)        -0.87056   0.89056   7.06253 
 H(Fragment=1)         0.89056  -0.87056   7.06253 
 H(Fragment=1)         1.77336  -1.75336   4.94326 
 C(Fragment=2)         4.77395   4.27395  -3.66128 
 C(Fragment=2)         3.74605   3.24605  -3.66128 
 C(Fragment=2)         5.25612   4.75612  -4.92359 
 C(Fragment=2)         3.26387   2.76387  -4.92359 
 C(Fragment=2)         4.76632   4.26632  -6.09636 
 C(Fragment=2)         3.75368   3.25368  -6.09636 
 C(Fragment=2)         5.25447   4.75447  -2.45332 
 C(Fragment=2)         4.77449   4.27449  -1.21403 
 C(Fragment=2)         3.26553   2.76553  -2.45332 
 C(Fragment=2)         3.74551   3.24551  -1.21403 
 H(Fragment=2)         6.02336   5.52336  -4.92326 
 H(Fragment=2)         6.02219   5.52219  -2.45393 
 H(Fragment=2)         2.49781   1.99781  -2.45393 
 H(Fragment=2)         2.49664   1.99664  -4.92326 
 H(Fragment=2)         3.37944   2.87944  -7.04253 
 H(Fragment=2)         5.14056   4.64056  -7.04253 
 C(Fragment=2)         5.25482   4.75482   0.01 
 C(Fragment=2)         4.77449   4.27449   1.23403 
 C(Fragment=2)         3.26518   2.76518   0.01 
 C(Fragment=2)         3.74551   3.24551   1.23403 
 H(Fragment=2)         6.02247   5.52247   0.01 
 H(Fragment=2)         2.49753   1.99753   0.01 
 C(Fragment=2)         5.25447   4.75447   2.47332 
 C(Fragment=2)         4.77395   4.27395   3.68128 
 C(Fragment=2)         3.26553   2.76553   2.47332 
 C(Fragment=2)         3.74605   3.24605   3.68128 
 H(Fragment=2)         6.02219   5.52219   2.47393 
 H(Fragment=2)         2.49781   1.99781   2.47393 
 C(Fragment=2)         5.25612   4.75612   4.94359 
 C(Fragment=2)         4.76632   4.26632   6.11636 
 C(Fragment=2)         3.26388   2.76388   4.94359 
 C(Fragment=2)         3.75368   3.25368   6.11636 
 H(Fragment=2)         6.02336   5.52336   4.94326 
 H(Fragment=2)         5.14056   4.64056   7.06253 
 H(Fragment=2)         3.37944   2.87944   7.06253 
 H(Fragment=2)         2.49664   1.99664   4.94326 
 
 ITRead=  0  0  0  0  0  0  0  0  0  0  0  0  0  0  0  0  0  0  0  0
 ITRead=  0  0  0  0  0  0  0  0  0  0  0  0  0  0  0  0  0  0  0  0
 ITRead=  0  0  0  0  0  0  0  0  0  0  0  0  0  0  0  0  0  0  0  0
 ITRead=  0  0  0  0  0  0  0  0  0  0  0  0
 MicOpt= -1 -1 -1 -1 -1 -1 -1 -1 -1 -1 -1 -1 -1 -1 -1 -1 -1 -1 -1 -1
 MicOpt= -1 -1 -1 -1 -1 -1 -1 -1 -1 -1 -1 -1 -1 -1 -1 -1 -1 -1 -1 -1
 MicOpt= -1 -1 -1 -1 -1 -1 -1 -1 -1 -1 -1 -1 -1 -1 -1 -1 -1 -1 -1 -1
 MicOpt= -1 -1 -1 -1 -1 -1 -1 -1 -1 -1 -1 -1
 NAtoms=     72 NQM=       72 NQMF=       0 NMMI=      0 NMMIF=      0
                NMic=       0 NMicF=      0.
                    Isotopes and Nuclear Properties:
 (Nuclear quadrupole moments (NQMom) in fm**2, nuclear magnetic moments (NMagM)
  in nuclear magnetons)

  Atom         1           2           3           4           5           6           7           8           9          10
 IAtWgt=          12          12          12          12          12          12          12          12          12          12
 AtmWgt=  12.0000000  12.0000000  12.0000000  12.0000000  12.0000000  12.0000000  12.0000000  12.0000000  12.0000000  12.0000000
 NucSpn=           0           0           0           0           0           0           0           0           0           0
 AtZEff=   0.0000000   0.0000000   0.0000000   0.0000000   0.0000000   0.0000000   0.0000000   0.0000000   0.0000000   0.0000000
 NQMom=    0.0000000   0.0000000   0.0000000   0.0000000   0.0000000   0.0000000   0.0000000   0.0000000   0.0000000   0.0000000
 NMagM=    0.0000000   0.0000000   0.0000000   0.0000000   0.0000000   0.0000000   0.0000000   0.0000000   0.0000000   0.0000000
 AtZNuc=   6.0000000   6.0000000   6.0000000   6.0000000   6.0000000   6.0000000   6.0000000   6.0000000   6.0000000   6.0000000

  Atom        11          12          13          14          15          16          17          18          19          20
 IAtWgt=           1           1           1           1           1           1          12          12          12          12
 AtmWgt=   1.0078250   1.0078250   1.0078250   1.0078250   1.0078250   1.0078250  12.0000000  12.0000000  12.0000000  12.0000000
 NucSpn=           1           1           1           1           1           1           0           0           0           0
 AtZEff=   0.0000000   0.0000000   0.0000000   0.0000000   0.0000000   0.0000000   0.0000000   0.0000000   0.0000000   0.0000000
 NQMom=    0.0000000   0.0000000   0.0000000   0.0000000   0.0000000   0.0000000   0.0000000   0.0000000   0.0000000   0.0000000
 NMagM=    2.7928460   2.7928460   2.7928460   2.7928460   2.7928460   2.7928460   0.0000000   0.0000000   0.0000000   0.0000000
 AtZNuc=   1.0000000   1.0000000   1.0000000   1.0000000   1.0000000   1.0000000   6.0000000   6.0000000   6.0000000   6.0000000

  Atom        21          22          23          24          25          26          27          28          29          30
 IAtWgt=           1           1          12          12          12          12           1           1          12          12
 AtmWgt=   1.0078250   1.0078250  12.0000000  12.0000000  12.0000000  12.0000000   1.0078250   1.0078250  12.0000000  12.0000000
 NucSpn=           1           1           0           0           0           0           1           1           0           0
 AtZEff=   0.0000000   0.0000000   0.0000000   0.0000000   0.0000000   0.0000000   0.0000000   0.0000000   0.0000000   0.0000000
 NQMom=    0.0000000   0.0000000   0.0000000   0.0000000   0.0000000   0.0000000   0.0000000   0.0000000   0.0000000   0.0000000
 NMagM=    2.7928460   2.7928460   0.0000000   0.0000000   0.0000000   0.0000000   2.7928460   2.7928460   0.0000000   0.0000000
 AtZNuc=   1.0000000   1.0000000   6.0000000   6.0000000   6.0000000   6.0000000   1.0000000   1.0000000   6.0000000   6.0000000

  Atom        31          32          33          34          35          36          37          38          39          40
 IAtWgt=          12          12           1           1           1           1          12          12          12          12
 AtmWgt=  12.0000000  12.0000000   1.0078250   1.0078250   1.0078250   1.0078250  12.0000000  12.0000000  12.0000000  12.0000000
 NucSpn=           0           0           1           1           1           1           0           0           0           0
 AtZEff=   0.0000000   0.0000000   0.0000000   0.0000000   0.0000000   0.0000000   0.0000000   0.0000000   0.0000000   0.0000000
 NQMom=    0.0000000   0.0000000   0.0000000   0.0000000   0.0000000   0.0000000   0.0000000   0.0000000   0.0000000   0.0000000
 NMagM=    0.0000000   0.0000000   2.7928460   2.7928460   2.7928460   2.7928460   0.0000000   0.0000000   0.0000000   0.0000000
 AtZNuc=   6.0000000   6.0000000   1.0000000   1.0000000   1.0000000   1.0000000   6.0000000   6.0000000   6.0000000   6.0000000

  Atom        41          42          43          44          45          46          47          48          49          50
 IAtWgt=          12          12          12          12          12          12           1           1           1           1
 AtmWgt=  12.0000000  12.0000000  12.0000000  12.0000000  12.0000000  12.0000000   1.0078250   1.0078250   1.0078250   1.0078250
 NucSpn=           0           0           0           0           0           0           1           1           1           1
 AtZEff=   0.0000000   0.0000000   0.0000000   0.0000000   0.0000000   0.0000000   0.0000000   0.0000000   0.0000000   0.0000000
 NQMom=    0.0000000   0.0000000   0.0000000   0.0000000   0.0000000   0.0000000   0.0000000   0.0000000   0.0000000   0.0000000
 NMagM=    0.0000000   0.0000000   0.0000000   0.0000000   0.0000000   0.0000000   2.7928460   2.7928460   2.7928460   2.7928460
 AtZNuc=   6.0000000   6.0000000   6.0000000   6.0000000   6.0000000   6.0000000   1.0000000   1.0000000   1.0000000   1.0000000

  Atom        51          52          53          54          55          56          57          58          59          60
 IAtWgt=           1           1          12          12          12          12           1           1          12          12
 AtmWgt=   1.0078250   1.0078250  12.0000000  12.0000000  12.0000000  12.0000000   1.0078250   1.0078250  12.0000000  12.0000000
 NucSpn=           1           1           0           0           0           0           1           1           0           0
 AtZEff=   0.0000000   0.0000000   0.0000000   0.0000000   0.0000000   0.0000000   0.0000000   0.0000000   0.0000000   0.0000000
 NQMom=    0.0000000   0.0000000   0.0000000   0.0000000   0.0000000   0.0000000   0.0000000   0.0000000   0.0000000   0.0000000
 NMagM=    2.7928460   2.7928460   0.0000000   0.0000000   0.0000000   0.0000000   2.7928460   2.7928460   0.0000000   0.0000000
 AtZNuc=   1.0000000   1.0000000   6.0000000   6.0000000   6.0000000   6.0000000   1.0000000   1.0000000   6.0000000   6.0000000

  Atom        61          62          63          64          65          66          67          68          69          70
 IAtWgt=          12          12           1           1          12          12          12          12           1           1
 AtmWgt=  12.0000000  12.0000000   1.0078250   1.0078250  12.0000000  12.0000000  12.0000000  12.0000000   1.0078250   1.0078250
 NucSpn=           0           0           1           1           0           0           0           0           1           1
 AtZEff=   0.0000000   0.0000000   0.0000000   0.0000000   0.0000000   0.0000000   0.0000000   0.0000000   0.0000000   0.0000000
 NQMom=    0.0000000   0.0000000   0.0000000   0.0000000   0.0000000   0.0000000   0.0000000   0.0000000   0.0000000   0.0000000
 NMagM=    0.0000000   0.0000000   2.7928460   2.7928460   0.0000000   0.0000000   0.0000000   0.0000000   2.7928460   2.7928460
 AtZNuc=   6.0000000   6.0000000   1.0000000   1.0000000   6.0000000   6.0000000   6.0000000   6.0000000   1.0000000   1.0000000

  Atom        71          72
 IAtWgt=           1           1
 AtmWgt=   1.0078250   1.0078250
 NucSpn=           1           1
 AtZEff=   0.0000000   0.0000000
 NQMom=    0.0000000   0.0000000
 NMagM=    2.7928460   2.7928460
 AtZNuc=   1.0000000   1.0000000
 Leave Link  101 at Wed Sep 27 16:57:34 2023, MaxMem=  3221225472 cpu:               2.5 elap:               0.1
 (Enter /home/center/opt/aarch64/apps/gaussian16/c01/g16/l202.exe)
 Stoichiometry    C44H28
 Framework group  CS[SG(C4H4),X(C40H24)]
 Deg. of freedom   109
 Full point group                 CS      NOp   2
 Largest Abelian subgroup         CS      NOp   2
 Largest concise Abelian subgroup CS      NOp   2
                         Standard orientation:                         
 ---------------------------------------------------------------------
 Center     Atomic      Atomic             Coordinates (Angstroms)
 Number     Number       Type             X           Y           Z
 ---------------------------------------------------------------------
      1          6           0        0.903609   -2.828427    3.671276
      2          6           0       -0.550056   -2.828427    3.671276
      3          6           0        1.585510   -2.828427    4.933593
      4          6           0       -1.231957   -2.828427    4.933593
      5          6           0        0.892823   -2.828427    6.106357
      6          6           0       -0.539270   -2.828427    6.106357
      7          6           0        1.583167   -2.828427    2.463318
      8          6           0        0.904373   -2.828427    1.224029
      9          6           0       -1.229614   -2.828427    2.463317
     10          6           0       -0.550820   -2.828427    1.224029
     11          1           0        2.670539   -2.828427    4.933260
     12          1           0        2.668885   -2.828427    2.463929
     13          1           0       -2.315330   -2.828427    2.463929
     14          1           0       -2.316985   -2.828427    4.933260
     15          1           0       -1.068519   -2.828427    7.052528
     16          1           0        1.422072   -2.828427    7.052528
     17          6           0        1.583663   -2.828427    0.000000
     18          6           0        0.904373   -2.828427   -1.224029
     19          6           0       -1.230109   -2.828427    0.000000
     20          6           0       -0.550820   -2.828427   -1.224029
     21          1           0        2.669286   -2.828427    0.000000
     22          1           0       -2.315731   -2.828427    0.000000
     23          6           0        1.583167   -2.828427   -2.463318
     24          6           0        0.903609   -2.828427   -3.671276
     25          6           0       -1.229614   -2.828427   -2.463317
     26          6           0       -0.550056   -2.828427   -3.671276
     27          1           0        2.668885   -2.828427   -2.463929
     28          1           0       -2.315330   -2.828427   -2.463929
     29          6           0        1.585510   -2.828427   -4.933593
     30          6           0        0.892823   -2.828427   -6.106357
     31          6           0       -1.231957   -2.828427   -4.933593
     32          6           0       -0.539270   -2.828427   -6.106357
     33          1           0        2.670539   -2.828427   -4.933260
     34          1           0        1.422072   -2.828427   -7.052528
     35          1           0       -1.068519   -2.828427   -7.052528
     36          1           0       -2.316985   -2.828427   -4.933260
     37          6           0       -0.176777    3.555259    3.671276
     38          6           0       -0.176777    2.101595    3.671276
     39          6           0       -0.176777    4.237160    4.933593
     40          6           0       -0.176777    1.419694    4.933593
     41          6           0       -0.176777    3.544474    6.106357
     42          6           0       -0.176777    2.112380    6.106357
     43          6           0       -0.176777    4.234818    2.463318
     44          6           0       -0.176777    3.556024    1.224029
     45          6           0       -0.176777    1.422036    2.463317
     46          6           0       -0.176777    2.100830    1.224029
     47          1           0       -0.176777    5.322189    4.933260
     48          1           0       -0.176777    5.320535    2.463929
     49          1           0       -0.176777    0.336320    2.463929
     50          1           0       -0.176777    0.334665    4.933260
     51          1           0       -0.176777    1.583132    7.052528
     52          1           0       -0.176777    4.073722    7.052528
     53          6           0       -0.176777    4.235313    0.000000
     54          6           0       -0.176777    3.556024   -1.224029
     55          6           0       -0.176777    1.421541    0.000000
     56          6           0       -0.176777    2.100830   -1.224029
     57          1           0       -0.176777    5.320936    0.000000
     58          1           0       -0.176777    0.335920    0.000000
     59          6           0       -0.176777    4.234818   -2.463318
     60          6           0       -0.176777    3.555259   -3.671276
     61          6           0       -0.176777    1.422036   -2.463317
     62          6           0       -0.176777    2.101595   -3.671276
     63          1           0       -0.176777    5.320535   -2.463929
     64          1           0       -0.176777    0.336320   -2.463929
     65          6           0       -0.176777    4.237160   -4.933593
     66          6           0       -0.176777    3.544474   -6.106357
     67          6           0       -0.176777    1.419694   -4.933593
     68          6           0       -0.176777    2.112380   -6.106357
     69          1           0       -0.176777    5.322189   -4.933260
     70          1           0       -0.176777    4.073722   -7.052528
     71          1           0       -0.176777    1.583132   -7.052528
     72          1           0       -0.176777    0.334665   -4.933260
 ---------------------------------------------------------------------
 Rotational constants (GHZ):           0.0966112           0.0563744           0.0376255
 Leave Link  202 at Wed Sep 27 16:57:37 2023, MaxMem=  3221225472 cpu:               0.6 elap:               0.0
 (Enter /home/center/opt/aarch64/apps/gaussian16/c01/g16/l122.exe)
 Counterpoise: doing full-system calculation.
 Leave Link  122 at Wed Sep 27 16:57:39 2023, MaxMem=  3221225472 cpu:               0.2 elap:               0.0
 (Enter /home/center/opt/aarch64/apps/gaussian16/c01/g16/l301.exe)
 Standard basis: 6-311G(d,p) (5D, 7F)
 Ernie: Thresh=  0.10000D-02 Tol=  0.10000D-05 Strict=F.
 There are   528 symmetry adapted cartesian basis functions of A'  symmetry.
 There are   476 symmetry adapted cartesian basis functions of A"  symmetry.
 There are   504 symmetry adapted basis functions of A'  symmetry.
 There are   456 symmetry adapted basis functions of A"  symmetry.
   960 basis functions,  1632 primitive gaussians,  1004 cartesian basis functions
   146 alpha electrons      146 beta electrons
       nuclear repulsion energy      4555.4983510737 Hartrees.
 IExCor=  402 DFT=T Ex+Corr=B3LYP ExCW=0 ScaHFX=  0.200000
 ScaDFX=  0.800000  0.720000  1.000000  0.810000 ScalE2=  1.000000  1.000000
 IRadAn=      5 IRanWt=     -1 IRanGd=            0 ICorTp=0 IEmpDi=131
 NAtoms=   72 NActive=   72 NUniq=   40 SFac= 3.24D+00 NAtFMM=   60 NAOKFM=T Big=F
 Integral buffers will be    131072 words long.
 Raffenetti 2 integral format.
 Two-electron integral symmetry is turned on.
 R6Disp:  Grimme-D3 Dispersion energy=       -0.0746850269 Hartrees.
 Nuclear repulsion after empirical dispersion term =     4555.4236660467 Hartrees.
 Leave Link  301 at Wed Sep 27 16:57:41 2023, MaxMem=  3221225472 cpu:               1.9 elap:               0.1
 (Enter /home/center/opt/aarch64/apps/gaussian16/c01/g16/l302.exe)
 NPDir=0 NMtPBC=     1 NCelOv=     1 NCel=       1 NClECP=     1 NCelD=      1
         NCelK=      1 NCelE2=     1 NClLst=     1 CellRange=     0.0.
 One-electron integrals computed using PRISM.
 One-electron integral symmetry used in STVInt
 NBasis=   960 RedAO= T EigKep=  3.90D-05  NBF=   504   456
 NBsUse=   960 1.00D-06 EigRej= -1.00D+00 NBFU=   504   456
 Precomputing XC quadrature grid using
 IXCGrd= 4 IRadAn=           5 IRanWt=          -1 IRanGd=           0 AccXCQ= 0.00D+00.
 Generated NRdTot=       0 NPtTot=           0 NUsed=           0 NTot=          32
 NSgBfM=   991   989   991   991   991 MxSgAt=    72 MxSgA2=    72.
 Leave Link  302 at Wed Sep 27 16:57:46 2023, MaxMem=  3221225472 cpu:              66.2 elap:               2.0
 (Enter /home/center/opt/aarch64/apps/gaussian16/c01/g16/l303.exe)
 DipDrv:  MaxL=1.
 Leave Link  303 at Wed Sep 27 16:57:48 2023, MaxMem=  3221225472 cpu:              14.1 elap:               0.4
 (Enter /home/center/opt/aarch64/apps/gaussian16/c01/g16/l401.exe)
 ExpMin= 1.03D-01 ExpMax= 4.56D+03 ExpMxC= 6.82D+02 IAcc=3 IRadAn=         5 AccDes= 0.00D+00
 Harris functional with IExCor=  402 and IRadAn=       5 diagonalized for initial guess.
 HarFok:  IExCor=  402 AccDes= 0.00D+00 IRadAn=         5 IDoV= 1 UseB2=F ITyADJ=14
 ICtDFT=  3500011 ScaDFX=  1.000000  1.000000  1.000000  1.000000
 FoFCou: FMM=F IPFlag=           0 FMFlag=      100000 FMFlg1=        2000
         NFxFlg=           0 DoJE=T BraDBF=F KetDBF=T FulRan=T
         wScrn=  0.000000 ICntrl=       500 IOpCl=  0 I1Cent=   200000004 NGrid=           0
         NMat0=    1 NMatS0=      1 NMatT0=    0 NMatD0=    1 NMtDS0=    0 NMtDT0=    0
 Petite list used in FoFCou.
 Harris En= -1694.13772858986    
 JPrj=0 DoOrth=F DoCkMO=F.
 Initial guess orbital symmetries:
       Occupied  (A") (A') (A") (A') (A') (A") (A') (A") (A") (A')
                 (A") (A') (A") (A') (A") (A') (A") (A') (A") (A')
                 (A') (A") (A") (A') (A') (A') (A') (A') (A") (A')
                 (A") (A') (A") (A') (A") (A') (A") (A') (A") (A')
                 (A') (A") (A') (A") (A') (A') (A") (A") (A') (A')
                 (A") (A") (A') (A') (A') (A') (A") (A") (A') (A')
                 (A") (A") (A") (A") (A') (A') (A') (A') (A") (A")
                 (A") (A") (A') (A') (A") (A") (A') (A') (A') (A')
                 (A') (A') (A") (A") (A") (A") (A") (A") (A') (A')
                 (A') (A') (A") (A") (A') (A') (A') (A') (A") (A")
                 (A') (A') (A") (A") (A") (A") (A') (A') (A') (A')
                 (A") (A") (A') (A') (A") (A") (A') (A') (A") (A")
                 (A") (A") (A') (A') (A') (A') (A") (A") (A') (A')
                 (A") (A") (A') (A') (A") (A") (A') (A') (A') (A')
                 (A") (A") (A") (A") (A') (A')
       Virtual   (A') (A') (A") (A") (A") (A") (A') (A') (A') (A')
                 (A") (A") (A') (A') (A") (A") (A') (A") (A') (A')
                 (A') (A') (A") (A') (A') (A") (A") (A') (A") (A")
                 (A') (A') (A") (A') (A") (A') (A") (A") (A") (A')
                 (A") (A') (A') (A') (A') (A") (A") (A') (A') (A')
                 (A') (A') (A") (A") (A') (A') (A") (A') (A") (A')
                 (A") (A") (A") (A") (A') (A') (A") (A') (A") (A")
                 (A') (A") (A') (A') (A") (A') (A") (A") (A') (A")
                 (A') (A') (A') (A') (A") (A') (A') (A") (A") (A')
                 (A') (A") (A") (A") (A') (A') (A") (A") (A") (A')
                 (A') (A") (A') (A") (A') (A") (A") (A') (A') (A')
                 (A') (A') (A') (A') (A") (A") (A") (A') (A') (A")
                 (A") (A') (A") (A') (A') (A") (A') (A") (A") (A')
                 (A") (A') (A") (A") (A") (A") (A') (A') (A') (A")
                 (A") (A') (A') (A') (A") (A') (A') (A') (A') (A")
                 (A') (A') (A") (A") (A') (A") (A") (A') (A') (A')
                 (A") (A") (A') (A") (A") (A') (A") (A') (A") (A')
                 (A') (A") (A") (A') (A') (A") (A') (A") (A') (A")
                 (A') (A") (A") (A') (A') (A') (A") (A') (A') (A')
                 (A") (A") (A') (A") (A') (A") (A') (A') (A") (A")
                 (A") (A') (A') (A") (A') (A") (A') (A') (A") (A')
                 (A") (A') (A") (A') (A") (A') (A") (A') (A") (A")
                 (A') (A") (A") (A") (A') (A") (A') (A') (A') (A")
                 (A') (A') (A') (A') (A") (A") (A') (A") (A") (A')
                 (A") (A") (A') (A') (A') (A') (A") (A") (A') (A")
                 (A') (A') (A") (A") (A") (A') (A') (A") (A") (A')
                 (A') (A') (A') (A") (A") (A") (A") (A') (A') (A")
                 (A") (A') (A") (A") (A') (A') (A') (A") (A") (A')
                 (A") (A") (A') (A') (A') (A') (A') (A") (A") (A")
                 (A") (A') (A') (A') (A') (A") (A") (A") (A') (A")
                 (A") (A") (A') (A') (A') (A") (A') (A') (A") (A')
                 (A") (A") (A') (A") (A") (A') (A") (A') (A') (A')
                 (A") (A') (A") (A') (A') (A") (A') (A') (A") (A")
                 (A") (A") (A') (A") (A') (A') (A") (A") (A') (A')
                 (A') (A") (A') (A") (A") (A') (A") (A") (A') (A')
                 (A') (A') (A") (A') (A") (A') (A") (A') (A") (A')
                 (A') (A') (A') (A') (A") (A") (A") (A") (A") (A")
                 (A") (A") (A') (A") (A') (A") (A') (A') (A') (A')
                 (A") (A") (A') (A') (A') (A') (A') (A") (A') (A")
                 (A") (A') (A') (A') (A") (A') (A") (A") (A") (A')
                 (A") (A') (A") (A') (A") (A') (A') (A") (A") (A')
                 (A") (A') (A') (A') (A') (A") (A') (A") (A') (A")
                 (A') (A') (A') (A") (A") (A') (A") (A') (A") (A')
                 (A") (A") (A") (A') (A") (A') (A") (A') (A") (A")
                 (A") (A') (A") (A') (A') (A') (A") (A') (A") (A")
                 (A') (A') (A') (A') (A") (A') (A") (A") (A') (A")
                 (A") (A") (A') (A') (A") (A') (A') (A") (A") (A")
                 (A") (A') (A') (A') (A") (A') (A") (A") (A') (A')
                 (A") (A') (A') (A') (A") (A') (A") (A") (A") (A')
                 (A") (A') (A") (A") (A") (A") (A") (A') (A") (A')
                 (A') (A") (A') (A') (A") (A') (A') (A') (A') (A")
                 (A") (A') (A') (A') (A") (A") (A") (A") (A') (A')
                 (A") (A") (A') (A') (A") (A") (A') (A') (A") (A')
                 (A') (A") (A') (A') (A") (A") (A') (A") (A") (A')
                 (A") (A") (A') (A') (A') (A') (A") (A") (A") (A")
                 (A") (A') (A') (A") (A") (A') (A") (A') (A') (A')
                 (A') (A") (A') (A") (A") (A') (A') (A") (A') (A")
                 (A") (A') (A") (A') (A") (A') (A") (A') (A') (A")
                 (A') (A") (A') (A') (A") (A') (A') (A') (A") (A")
                 (A') (A') (A") (A') (A') (A') (A") (A") (A') (A")
                 (A') (A") (A') (A") (A") (A') (A") (A') (A") (A')
                 (A") (A') (A') (A") (A') (A") (A") (A') (A') (A")
                 (A') (A") (A") (A') (A") (A') (A") (A') (A") (A')
                 (A") (A') (A') (A') (A') (A") (A') (A') (A") (A')
                 (A") (A') (A") (A") (A") (A') (A") (A") (A") (A')
                 (A') (A") (A') (A') (A') (A') (A') (A") (A") (A')
                 (A') (A') (A") (A") (A") (A") (A') (A') (A') (A")
                 (A') (A") (A") (A') (A') (A") (A") (A") (A') (A')
                 (A") (A') (A') (A") (A') (A") (A') (A") (A") (A")
                 (A') (A') (A") (A') (A') (A') (A") (A") (A") (A')
                 (A') (A') (A") (A") (A') (A") (A') (A") (A') (A")
                 (A") (A") (A') (A") (A') (A') (A') (A') (A") (A")
                 (A') (A') (A") (A") (A') (A') (A") (A') (A') (A")
                 (A') (A") (A") (A') (A") (A') (A") (A') (A') (A')
                 (A") (A") (A') (A') (A") (A") (A') (A') (A') (A')
                 (A") (A') (A") (A') (A") (A") (A') (A') (A") (A")
                 (A") (A") (A') (A') (A") (A") (A') (A") (A') (A")
                 (A') (A') (A") (A") (A') (A') (A') (A') (A") (A")
                 (A") (A") (A') (A') (A") (A") (A') (A') (A') (A')
                 (A") (A") (A") (A") (A') (A') (A') (A') (A") (A")
                 (A') (A') (A") (A") (A') (A') (A") (A") (A') (A')
                 (A') (A") (A') (A")
 The electronic state of the initial guess is 1-A'.
 Leave Link  401 at Wed Sep 27 16:57:53 2023, MaxMem=  3221225472 cpu:             105.0 elap:               2.6
 (Enter /home/center/opt/aarch64/apps/gaussian16/c01/g16/l502.exe)
 Integral symmetry usage will be decided dynamically.
 Closed shell SCF:
 Using DIIS extrapolation, IDIIS=  1040.
 NGot=  3221225472 LenX=  3219153746 LenY=  3218144726
 Requested convergence on RMS density matrix=1.00D-08 within 128 cycles.
 Requested convergence on MAX density matrix=1.00D-06.
 Requested convergence on             energy=1.00D-06.
 No special actions if energy rises.
 Fock matrices will be formed incrementally for  20 cycles.
 Integral accuracy reduced to 1.0D-05 until final iterations.

 Cycle   1  Pass 0  IDiag  1:
 FoFJK:  IHMeth= 1 ICntrl=       0 DoSepK=F KAlg= 0 I1Cent=           0 FoldK=F
 IRaf= 540000000 NMat=       1 IRICut=       1 DoRegI=T DoRafI=F ISym2E= 1 IDoP0=0 IntGTp=1.
 FoFCou: FMM=F IPFlag=           0 FMFlag=      100000 FMFlg1=        2000
         NFxFlg=           0 DoJE=F BraDBF=F KetDBF=F FulRan=T
         wScrn=  0.000000 ICntrl=         0 IOpCl=  0 I1Cent=           0 NGrid=           0
         NMat0=    1 NMatS0=      1 NMatT0=    0 NMatD0=    1 NMtDS0=    0 NMtDT0=    0
 Petite list used in FoFCou.
 E= -1693.16444727266    
 DIIS: error= 4.71D-02 at cycle   1 NSaved=   1.
 NSaved= 1 IEnMin= 1 EnMin= -1693.16444727266     IErMin= 1 ErrMin= 4.71D-02
 ErrMax= 4.71D-02  0.00D+00 EMaxC= 1.00D-01 BMatC= 9.02D-01 BMatP= 9.02D-01
 IDIUse=3 WtCom= 5.29D-01 WtEn= 4.71D-01
 Coeff-Com:  0.100D+01
 Coeff-En:   0.100D+01
 Coeff:      0.100D+01
 Gap=     0.069 Goal=   None    Shift=    0.000
 GapD=    0.069 DampG=0.500 DampE=0.500 DampFc=0.2500 IDamp=-1.
 Damping current iteration by 2.50D-01
 RMSDP=1.71D-03 MaxDP=8.40D-02              OVMax= 1.56D-01

 Cycle   2  Pass 0  IDiag  1:
 RMSU=  4.14D-04    CP:  9.82D-01
 E= -1693.47536853384     Delta-E=       -0.310921261178 Rises=F Damp=T
 DIIS: error= 2.74D-02 at cycle   2 NSaved=   2.
 NSaved= 2 IEnMin= 2 EnMin= -1693.47536853384     IErMin= 2 ErrMin= 2.74D-02
 ErrMax= 2.74D-02  0.00D+00 EMaxC= 1.00D-01 BMatC= 2.99D-01 BMatP= 9.02D-01
 IDIUse=3 WtCom= 7.26D-01 WtEn= 2.74D-01
 Coeff-Com: -0.121D+01 0.221D+01
 Coeff-En:   0.000D+00 0.100D+01
 Coeff:     -0.877D+00 0.188D+01
 Gap=     0.067 Goal=   None    Shift=    0.000
 RMSDP=6.94D-04 MaxDP=3.35D-02 DE=-3.11D-01 OVMax= 8.52D-02

 Cycle   3  Pass 0  IDiag  1:
 RMSU=  4.31D-04    CP:  9.56D-01  2.26D+00
 E= -1694.04435229877     Delta-E=       -0.568983764925 Rises=F Damp=F
 DIIS: error= 4.66D-03 at cycle   3 NSaved=   3.
 NSaved= 3 IEnMin= 3 EnMin= -1694.04435229877     IErMin= 3 ErrMin= 4.66D-03
 ErrMax= 4.66D-03  0.00D+00 EMaxC= 1.00D-01 BMatC= 1.12D-02 BMatP= 2.99D-01
 IDIUse=3 WtCom= 9.53D-01 WtEn= 4.66D-02
 Coeff-Com: -0.217D+00 0.467D+00 0.751D+00
 Coeff-En:   0.000D+00 0.000D+00 0.100D+01
 Coeff:     -0.207D+00 0.445D+00 0.762D+00
 Gap=     0.070 Goal=   None    Shift=    0.000
 RMSDP=2.24D-04 MaxDP=1.32D-02 DE=-5.69D-01 OVMax= 9.44D-02

 Cycle   4  Pass 0  IDiag  1:
 RMSU=  1.93D-04    CP:  9.58D-01  2.14D+00  7.64D-01
 E= -1694.04058922261     Delta-E=        0.003763076160 Rises=F Damp=F
 DIIS: error= 7.01D-03 at cycle   4 NSaved=   4.
 NSaved= 4 IEnMin= 3 EnMin= -1694.04435229877     IErMin= 3 ErrMin= 4.66D-03
 ErrMax= 7.01D-03  0.00D+00 EMaxC= 1.00D-01 BMatC= 1.28D-02 BMatP= 1.12D-02
 IDIUse=3 WtCom= 1.07D-01 WtEn= 8.93D-01
 Coeff-Com: -0.218D-01 0.847D-01 0.531D+00 0.406D+00
 Coeff-En:   0.000D+00 0.000D+00 0.559D+00 0.441D+00
 Coeff:     -0.233D-02 0.903D-02 0.556D+00 0.437D+00
 Gap=     0.067 Goal=   None    Shift=    0.000
 RMSDP=1.42D-04 MaxDP=9.59D-03 DE= 3.76D-03 OVMax= 8.35D-02

 Cycle   5  Pass 0  IDiag  1:
 RMSU=  7.61D-05    CP:  9.58D-01  2.13D+00  8.34D-01  4.00D-01
 E= -1694.05465617794     Delta-E=       -0.014066955335 Rises=F Damp=F
 DIIS: error= 2.32D-03 at cycle   5 NSaved=   5.
 NSaved= 5 IEnMin= 5 EnMin= -1694.05465617794     IErMin= 5 ErrMin= 2.32D-03
 ErrMax= 2.32D-03  0.00D+00 EMaxC= 1.00D-01 BMatC= 1.20D-03 BMatP= 1.12D-02
 IDIUse=3 WtCom= 9.77D-01 WtEn= 2.32D-02
 Coeff-Com: -0.167D-01 0.348D-01 0.238D+00 0.254D+00 0.489D+00
 Coeff-En:   0.000D+00 0.000D+00 0.000D+00 0.655D-01 0.935D+00
 Coeff:     -0.163D-01 0.340D-01 0.233D+00 0.250D+00 0.500D+00
 Gap=     0.068 Goal=   None    Shift=    0.000
 RMSDP=4.85D-05 MaxDP=3.37D-03 DE=-1.41D-02 OVMax= 3.36D-02

 Cycle   6  Pass 0  IDiag  1:
 RMSU=  2.45D-05    CP:  9.57D-01  2.16D+00  8.37D-01  5.10D-01  5.56D-01
 E= -1694.05578520685     Delta-E=       -0.001129028905 Rises=F Damp=F
 DIIS: error= 1.18D-03 at cycle   6 NSaved=   6.
 NSaved= 6 IEnMin= 6 EnMin= -1694.05578520685     IErMin= 6 ErrMin= 1.18D-03
 ErrMax= 1.18D-03  0.00D+00 EMaxC= 1.00D-01 BMatC= 2.52D-04 BMatP= 1.20D-03
 IDIUse=3 WtCom= 9.88D-01 WtEn= 1.18D-02
 Coeff-Com: -0.863D-02 0.125D-01 0.984D-01 0.127D+00 0.366D+00 0.404D+00
 Coeff-En:   0.000D+00 0.000D+00 0.000D+00 0.000D+00 0.175D+00 0.825D+00
 Coeff:     -0.853D-02 0.124D-01 0.973D-01 0.126D+00 0.364D+00 0.409D+00
 Gap=     0.067 Goal=   None    Shift=    0.000
 RMSDP=2.07D-05 MaxDP=1.64D-03 DE=-1.13D-03 OVMax= 1.39D-02

 Cycle   7  Pass 0  IDiag  1:
 RMSU=  8.26D-06    CP:  9.57D-01  2.16D+00  8.39D-01  4.92D-01  6.33D-01
                    CP:  2.83D-01
 E= -1694.05607180634     Delta-E=       -0.000286599489 Rises=F Damp=F
 DIIS: error= 3.08D-04 at cycle   7 NSaved=   7.
 NSaved= 7 IEnMin= 7 EnMin= -1694.05607180634     IErMin= 7 ErrMin= 3.08D-04
 ErrMax= 3.08D-04  0.00D+00 EMaxC= 1.00D-01 BMatC= 2.08D-05 BMatP= 2.52D-04
 IDIUse=3 WtCom= 9.97D-01 WtEn= 3.08D-03
 Coeff-Com: -0.394D-02 0.497D-02 0.519D-01 0.693D-01 0.215D+00 0.285D+00
 Coeff-Com:  0.378D+00
 Coeff-En:   0.000D+00 0.000D+00 0.000D+00 0.000D+00 0.000D+00 0.419D-01
 Coeff-En:   0.958D+00
 Coeff:     -0.393D-02 0.496D-02 0.517D-01 0.691D-01 0.214D+00 0.284D+00
 Coeff:      0.379D+00
 Gap=     0.068 Goal=   None    Shift=    0.000
 RMSDP=5.49D-06 MaxDP=3.43D-04 DE=-2.87D-04 OVMax= 2.72D-03

 Initial convergence to 1.0D-05 achieved.  Increase integral accuracy.
 Cycle   8  Pass 1  IDiag  1:
 E= -1694.05573092321     Delta-E=        0.000340883129 Rises=F Damp=F
 DIIS: error= 6.51D-04 at cycle   1 NSaved=   1.
 NSaved= 1 IEnMin= 1 EnMin= -1694.05573092321     IErMin= 1 ErrMin= 6.51D-04
 ErrMax= 6.51D-04  0.00D+00 EMaxC= 1.00D-01 BMatC= 4.05D-05 BMatP= 4.05D-05
 IDIUse=3 WtCom= 9.93D-01 WtEn= 6.51D-03
 Coeff-Com:  0.100D+01
 Coeff-En:   0.100D+01
 Coeff:      0.100D+01
 Gap=     0.068 Goal=   None    Shift=    0.000
 RMSDP=5.49D-06 MaxDP=3.43D-04 DE= 3.41D-04 OVMax= 1.49D-03

 Cycle   9  Pass 1  IDiag  1:
 RMSU=  3.13D-04    CP:  9.99D-01
 E= -1694.05577007620     Delta-E=       -0.000039152988 Rises=F Damp=F
 DIIS: error= 7.92D-05 at cycle   2 NSaved=   2.
 NSaved= 2 IEnMin= 2 EnMin= -1694.05577007620     IErMin= 2 ErrMin= 7.92D-05
 ErrMax= 7.92D-05  0.00D+00 EMaxC= 1.00D-01 BMatC= 2.02D-06 BMatP= 4.05D-05
 IDIUse=1 WtCom= 1.00D+00 WtEn= 0.00D+00
 Coeff-Com:  0.606D-01 0.939D+00
 Coeff:      0.606D-01 0.939D+00
 Gap=     0.068 Goal=   None    Shift=    0.000
 RMSDP=5.75D-06 MaxDP=3.47D-04 DE=-3.92D-05 OVMax= 2.72D-03

 Cycle  10  Pass 1  IDiag  1:
 RMSU=  4.68D-06    CP:  9.99D-01  1.01D+00
 E= -1694.05576104548     Delta-E=        0.000009030713 Rises=F Damp=F
 DIIS: error= 2.16D-04 at cycle   3 NSaved=   3.
 NSaved= 3 IEnMin= 2 EnMin= -1694.05577007620     IErMin= 2 ErrMin= 7.92D-05
 ErrMax= 2.16D-04  0.00D+00 EMaxC= 1.00D-01 BMatC= 9.32D-06 BMatP= 2.02D-06
 IDIUse=3 WtCom= 4.05D-01 WtEn= 5.95D-01
 Coeff-Com: -0.242D-02 0.687D+00 0.316D+00
 Coeff-En:   0.000D+00 0.771D+00 0.229D+00
 Coeff:     -0.979D-03 0.737D+00 0.264D+00
 Gap=     0.068 Goal=   None    Shift=    0.000
 RMSDP=2.96D-06 MaxDP=2.23D-04 DE= 9.03D-06 OVMax= 1.96D-03

 Cycle  11  Pass 1  IDiag  1:
 RMSU=  8.76D-07    CP:  9.99D-01  1.01D+00  3.97D-01
 E= -1694.05577203778     Delta-E=       -0.000010992294 Rises=F Damp=F
 DIIS: error= 3.08D-05 at cycle   4 NSaved=   4.
 NSaved= 4 IEnMin= 4 EnMin= -1694.05577203778     IErMin= 4 ErrMin= 3.08D-05
 ErrMax= 3.08D-05  0.00D+00 EMaxC= 1.00D-01 BMatC= 3.18D-07 BMatP= 2.02D-06
 IDIUse=1 WtCom= 1.00D+00 WtEn= 0.00D+00
 Coeff-Com: -0.384D-02 0.449D+00 0.153D+00 0.402D+00
 Coeff:     -0.384D-02 0.449D+00 0.153D+00 0.402D+00
 Gap=     0.068 Goal=   None    Shift=    0.000
 RMSDP=5.49D-07 MaxDP=2.78D-05 DE=-1.10D-05 OVMax= 1.36D-04

 Cycle  12  Pass 1  IDiag  1:
 RMSU=  3.48D-07    CP:  9.99D-01  1.01D+00  3.23D-01  7.22D-01
 E= -1694.05577235293     Delta-E=       -0.000000315151 Rises=F Damp=F
 DIIS: error= 5.11D-06 at cycle   5 NSaved=   5.
 NSaved= 5 IEnMin= 5 EnMin= -1694.05577235293     IErMin= 5 ErrMin= 5.11D-06
 ErrMax= 5.11D-06  0.00D+00 EMaxC= 1.00D-01 BMatC= 3.48D-09 BMatP= 3.18D-07
 IDIUse=1 WtCom= 1.00D+00 WtEn= 0.00D+00
 Coeff-Com: -0.223D-02 0.252D+00 0.850D-01 0.238D+00 0.427D+00
 Coeff:     -0.223D-02 0.252D+00 0.850D-01 0.238D+00 0.427D+00
 Gap=     0.068 Goal=   None    Shift=    0.000
 RMSDP=8.91D-08 MaxDP=3.88D-06 DE=-3.15D-07 OVMax= 3.50D-05

 Cycle  13  Pass 1  IDiag  1:
 RMSU=  8.14D-08    CP:  9.99D-01  1.01D+00  3.26D-01  7.33D-01  9.10D-01
 E= -1694.05577235693     Delta-E=       -0.000000003997 Rises=F Damp=F
 DIIS: error= 1.91D-06 at cycle   6 NSaved=   6.
 NSaved= 6 IEnMin= 6 EnMin= -1694.05577235693     IErMin= 6 ErrMin= 1.91D-06
 ErrMax= 1.91D-06  0.00D+00 EMaxC= 1.00D-01 BMatC= 5.85D-10 BMatP= 3.48D-09
 IDIUse=1 WtCom= 1.00D+00 WtEn= 0.00D+00
 Coeff-Com: -0.842D-03 0.916D-01 0.309D-01 0.905D-01 0.287D+00 0.501D+00
 Coeff:     -0.842D-03 0.916D-01 0.309D-01 0.905D-01 0.287D+00 0.501D+00
 Gap=     0.068 Goal=   None    Shift=    0.000
 RMSDP=2.65D-08 MaxDP=1.47D-06 DE=-4.00D-09 OVMax= 1.17D-05

 Cycle  14  Pass 1  IDiag  1:
 RMSU=  1.66D-08    CP:  9.99D-01  1.01D+00  3.27D-01  7.27D-01  9.40D-01
                    CP:  8.13D-01
 E= -1694.05577235758     Delta-E=       -0.000000000658 Rises=F Damp=F
 DIIS: error= 2.19D-07 at cycle   7 NSaved=   7.
 NSaved= 7 IEnMin= 7 EnMin= -1694.05577235758     IErMin= 7 ErrMin= 2.19D-07
 ErrMax= 2.19D-07  0.00D+00 EMaxC= 1.00D-01 BMatC= 1.55D-11 BMatP= 5.85D-10
 IDIUse=1 WtCom= 1.00D+00 WtEn= 0.00D+00
 Coeff-Com: -0.125D-03 0.128D-01 0.374D-02 0.152D-01 0.670D-01 0.179D+00
 Coeff-Com:  0.723D+00
 Coeff:     -0.125D-03 0.128D-01 0.374D-02 0.152D-01 0.670D-01 0.179D+00
 Coeff:      0.723D+00
 Gap=     0.068 Goal=   None    Shift=    0.000
 RMSDP=7.93D-09 MaxDP=4.86D-07 DE=-6.58D-10 OVMax= 3.70D-06

 SCF Done:  E(RB3LYP) =  -1694.05577236     A.U. after   14 cycles
            NFock= 14  Conv=0.79D-08     -V/T= 2.0044
 KE= 1.686673194701D+03 PE=-1.304128500805D+04 EE= 5.105132374948D+03
 Leave Link  502 at Wed Sep 27 16:59:26 2023, MaxMem=  3221225472 cpu:            3307.9 elap:              90.0
 (Enter /home/center/opt/aarch64/apps/gaussian16/c01/g16/l601.exe)
 Copying SCF densities to generalized density rwf, IOpCl= 0 IROHF=0.

 **********************************************************************

            Population analysis using the SCF Density.

 **********************************************************************

 Orbital symmetries:
       Occupied  (A") (A') (A') (A") (A") (A') (A") (A') (A') (A')
                 (A") (A') (A") (A') (A") (A') (A") (A') (A') (A")
                 (A") (A') (A") (A') (A") (A') (A') (A") (A") (A')
                 (A") (A') (A') (A") (A') (A') (A") (A') (A") (A')
                 (A") (A') (A") (A') (A') (A') (A") (A") (A') (A')
                 (A") (A") (A') (A') (A') (A") (A') (A") (A') (A')
                 (A") (A") (A") (A") (A') (A') (A') (A') (A") (A")
                 (A") (A") (A') (A") (A') (A') (A") (A') (A') (A')
                 (A') (A") (A") (A') (A") (A") (A') (A") (A') (A")
                 (A') (A') (A') (A") (A") (A') (A") (A") (A') (A')
                 (A') (A") (A') (A') (A') (A') (A") (A") (A') (A")
                 (A') (A') (A") (A") (A") (A") (A") (A") (A') (A')
                 (A') (A') (A') (A') (A") (A") (A') (A") (A") (A")
                 (A') (A") (A') (A') (A") (A') (A") (A') (A') (A')
                 (A") (A") (A") (A") (A') (A')
       Virtual   (A') (A') (A") (A") (A") (A") (A') (A') (A') (A")
                 (A') (A') (A") (A') (A') (A") (A') (A') (A") (A")
                 (A') (A') (A") (A") (A") (A') (A') (A') (A") (A")
                 (A') (A") (A') (A") (A') (A") (A") (A') (A") (A')
                 (A') (A") (A') (A') (A") (A') (A") (A') (A") (A')
                 (A") (A') (A') (A') (A') (A') (A') (A") (A') (A")
                 (A") (A") (A") (A") (A') (A') (A") (A") (A") (A')
                 (A') (A') (A") (A") (A') (A') (A") (A') (A") (A')
                 (A") (A') (A') (A') (A') (A') (A") (A") (A') (A")
                 (A") (A") (A') (A') (A') (A") (A') (A") (A") (A')
                 (A') (A") (A") (A') (A') (A") (A") (A') (A") (A")
                 (A') (A') (A") (A') (A") (A") (A') (A') (A') (A')
                 (A") (A') (A") (A') (A") (A') (A') (A') (A') (A")
                 (A') (A") (A") (A") (A') (A') (A') (A") (A') (A')
                 (A") (A") (A') (A') (A") (A') (A") (A') (A") (A')
                 (A") (A") (A') (A") (A") (A') (A') (A") (A') (A")
                 (A') (A") (A') (A') (A") (A") (A') (A") (A") (A')
                 (A") (A') (A') (A") (A') (A') (A') (A') (A") (A")
                 (A") (A') (A') (A") (A') (A") (A') (A") (A") (A')
                 (A') (A") (A") (A") (A') (A') (A") (A') (A") (A')
                 (A') (A") (A') (A") (A') (A') (A") (A') (A") (A')
                 (A') (A") (A") (A') (A") (A') (A") (A') (A") (A')
                 (A") (A") (A') (A") (A") (A') (A') (A') (A") (A')
                 (A') (A") (A") (A') (A") (A') (A") (A') (A") (A')
                 (A") (A') (A') (A") (A') (A') (A") (A") (A") (A')
                 (A') (A") (A") (A') (A') (A") (A') (A") (A") (A')
                 (A") (A') (A') (A') (A") (A') (A") (A") (A') (A')
                 (A") (A") (A') (A") (A") (A') (A') (A") (A") (A')
                 (A") (A') (A') (A') (A") (A") (A') (A") (A') (A")
                 (A') (A') (A") (A') (A") (A") (A') (A') (A") (A')
                 (A") (A") (A") (A") (A') (A") (A') (A') (A') (A')
                 (A') (A") (A') (A') (A") (A") (A") (A') (A") (A")
                 (A') (A") (A') (A') (A') (A") (A') (A") (A') (A")
                 (A") (A") (A') (A") (A') (A') (A") (A") (A') (A')
                 (A") (A') (A') (A') (A") (A") (A') (A') (A") (A")
                 (A') (A") (A') (A") (A') (A') (A') (A') (A') (A")
                 (A') (A") (A') (A") (A') (A") (A") (A") (A") (A")
                 (A') (A") (A') (A") (A') (A") (A") (A') (A") (A')
                 (A') (A') (A") (A') (A") (A') (A') (A') (A") (A')
                 (A') (A') (A") (A") (A') (A") (A') (A") (A") (A')
                 (A') (A") (A") (A') (A") (A') (A') (A") (A') (A")
                 (A') (A") (A') (A") (A') (A') (A") (A') (A') (A")
                 (A') (A") (A') (A') (A') (A") (A") (A') (A") (A')
                 (A") (A") (A") (A') (A') (A') (A") (A") (A") (A")
                 (A') (A') (A') (A") (A") (A') (A") (A") (A') (A')
                 (A") (A') (A") (A') (A") (A') (A") (A') (A") (A')
                 (A") (A') (A") (A') (A") (A') (A") (A') (A') (A')
                 (A") (A') (A") (A') (A") (A") (A") (A") (A') (A')
                 (A") (A') (A") (A') (A') (A') (A") (A") (A') (A")
                 (A") (A") (A') (A") (A") (A") (A") (A") (A') (A')
                 (A") (A') (A') (A') (A") (A') (A') (A') (A") (A")
                 (A') (A') (A') (A") (A') (A") (A') (A") (A') (A")
                 (A") (A") (A") (A') (A') (A') (A") (A') (A') (A")
                 (A") (A") (A') (A') (A") (A") (A') (A") (A') (A')
                 (A") (A") (A') (A') (A') (A") (A") (A") (A') (A")
                 (A") (A') (A") (A') (A") (A') (A') (A") (A') (A')
                 (A") (A") (A') (A') (A") (A') (A") (A') (A") (A')
                 (A") (A') (A') (A') (A") (A') (A") (A') (A') (A')
                 (A") (A") (A') (A") (A') (A") (A') (A") (A') (A")
                 (A') (A") (A") (A") (A') (A") (A') (A") (A') (A")
                 (A') (A') (A') (A") (A') (A') (A') (A") (A') (A")
                 (A") (A') (A') (A') (A") (A") (A') (A') (A') (A")
                 (A") (A') (A') (A") (A") (A") (A') (A') (A") (A')
                 (A") (A") (A") (A') (A') (A") (A') (A') (A') (A')
                 (A") (A') (A") (A') (A") (A") (A") (A") (A') (A')
                 (A") (A') (A") (A') (A') (A') (A') (A") (A') (A")
                 (A") (A') (A") (A') (A") (A") (A') (A') (A") (A')
                 (A') (A") (A") (A') (A") (A') (A") (A") (A') (A')
                 (A') (A') (A") (A") (A') (A") (A') (A") (A") (A")
                 (A') (A') (A") (A') (A') (A') (A") (A") (A") (A')
                 (A') (A') (A") (A") (A') (A") (A') (A") (A') (A")
                 (A") (A') (A") (A") (A') (A') (A') (A") (A') (A")
                 (A') (A") (A') (A') (A") (A') (A') (A") (A') (A")
                 (A") (A') (A") (A') (A") (A') (A') (A") (A') (A")
                 (A') (A") (A') (A") (A') (A') (A") (A') (A') (A")
                 (A') (A') (A") (A') (A") (A") (A') (A') (A") (A")
                 (A") (A') (A") (A") (A') (A") (A') (A") (A') (A")
                 (A') (A') (A") (A") (A') (A') (A') (A') (A") (A")
                 (A") (A") (A') (A') (A") (A') (A") (A') (A') (A')
                 (A") (A") (A") (A") (A') (A') (A') (A") (A') (A")
                 (A') (A') (A") (A') (A") (A") (A') (A') (A") (A')
                 (A') (A") (A') (A")
 The electronic state is 1-A'.
 Alpha  occ. eigenvalues --  -10.19525 -10.19525 -10.19483 -10.19482 -10.19422
 Alpha  occ. eigenvalues --  -10.19422 -10.19376 -10.19376 -10.18533 -10.18529
 Alpha  occ. eigenvalues --  -10.18483 -10.18483 -10.18479 -10.18479 -10.18396
 Alpha  occ. eigenvalues --  -10.18396 -10.18365 -10.18365 -10.18327 -10.18327
 Alpha  occ. eigenvalues --  -10.18286 -10.18286 -10.18182 -10.18182 -10.18130
 Alpha  occ. eigenvalues --  -10.18130 -10.18100 -10.18099 -10.18024 -10.18024
 Alpha  occ. eigenvalues --  -10.17237 -10.17237 -10.17190 -10.17179 -10.17179
 Alpha  occ. eigenvalues --  -10.17167 -10.17167 -10.17115 -10.17095 -10.17095
 Alpha  occ. eigenvalues --  -10.17079 -10.17079 -10.17002 -10.17002  -0.89937
 Alpha  occ. eigenvalues --   -0.88584  -0.88441  -0.87129  -0.86116  -0.84823
 Alpha  occ. eigenvalues --   -0.82976  -0.81694  -0.80378  -0.79079  -0.79045
 Alpha  occ. eigenvalues --   -0.78853  -0.77802  -0.77559  -0.76523  -0.75245
 Alpha  occ. eigenvalues --   -0.74819  -0.73532  -0.73431  -0.72160  -0.69733
 Alpha  occ. eigenvalues --   -0.68447  -0.67895  -0.66616  -0.63270  -0.62902
 Alpha  occ. eigenvalues --   -0.61991  -0.61651  -0.61637  -0.60481  -0.60310
 Alpha  occ. eigenvalues --   -0.59818  -0.59181  -0.58542  -0.58212  -0.56963
 Alpha  occ. eigenvalues --   -0.53241  -0.53087  -0.52808  -0.51981  -0.51813
 Alpha  occ. eigenvalues --   -0.51570  -0.50154  -0.49042  -0.48889  -0.47810
 Alpha  occ. eigenvalues --   -0.47657  -0.46604  -0.46424  -0.46065  -0.46019
 Alpha  occ. eigenvalues --   -0.45348  -0.44821  -0.44744  -0.44456  -0.43675
 Alpha  occ. eigenvalues --   -0.43219  -0.43060  -0.42444  -0.42313  -0.42084
 Alpha  occ. eigenvalues --   -0.41952  -0.41804  -0.41249  -0.41024  -0.40925
 Alpha  occ. eigenvalues --   -0.40795  -0.40651  -0.40178  -0.39942  -0.39687
 Alpha  occ. eigenvalues --   -0.38866  -0.38699  -0.37449  -0.37339  -0.36849
 Alpha  occ. eigenvalues --   -0.36051  -0.36030  -0.35652  -0.34729  -0.34636
 Alpha  occ. eigenvalues --   -0.34305  -0.33571  -0.33483  -0.33361  -0.33001
 Alpha  occ. eigenvalues --   -0.32351  -0.32235  -0.32075  -0.30851  -0.30235
 Alpha  occ. eigenvalues --   -0.28984  -0.28923  -0.27717  -0.27188  -0.25890
 Alpha  occ. eigenvalues --   -0.24988  -0.23662  -0.23144  -0.21849  -0.18426
 Alpha  occ. eigenvalues --   -0.17105
 Alpha virt. eigenvalues --   -0.10337  -0.09018  -0.05027  -0.03746  -0.03337
 Alpha virt. eigenvalues --   -0.02040  -0.00709   0.00567   0.01520   0.01790
 Alpha virt. eigenvalues --    0.02572   0.02765   0.03069   0.03757   0.03974
 Alpha virt. eigenvalues --    0.03987   0.04610   0.05246   0.05720   0.05905
 Alpha virt. eigenvalues --    0.05911   0.06391   0.07238   0.07525   0.07758
 Alpha virt. eigenvalues --    0.07873   0.08243   0.08868   0.09001   0.09292
 Alpha virt. eigenvalues --    0.09562   0.09735   0.10610   0.10731   0.11216
 Alpha virt. eigenvalues --    0.11461   0.12380   0.12499   0.13485   0.13568
 Alpha virt. eigenvalues --    0.14277   0.14731   0.14820   0.15515   0.17527
 Alpha virt. eigenvalues --    0.17886   0.18387   0.18719   0.18791   0.18961
 Alpha virt. eigenvalues --    0.19480   0.20133   0.22360   0.22435   0.23537
 Alpha virt. eigenvalues --    0.23730   0.23891   0.24480   0.25088   0.25113
 Alpha virt. eigenvalues --    0.25306   0.26201   0.27054   0.27077   0.27259
 Alpha virt. eigenvalues --    0.27734   0.27883   0.28048   0.28595   0.28763
 Alpha virt. eigenvalues --    0.28879   0.29319   0.29514   0.30032   0.30088
 Alpha virt. eigenvalues --    0.30195   0.30662   0.31292   0.31504   0.31998
 Alpha virt. eigenvalues --    0.32085   0.34011   0.34390   0.35102   0.35660
 Alpha virt. eigenvalues --    0.35799   0.35852   0.36335   0.36381   0.36797
 Alpha virt. eigenvalues --    0.37005   0.37474   0.37557   0.38135   0.38203
 Alpha virt. eigenvalues --    0.38610   0.38630   0.38760   0.39072   0.39126
 Alpha virt. eigenvalues --    0.39227   0.39578   0.39675   0.39769   0.40018
 Alpha virt. eigenvalues --    0.40025   0.40491   0.40580   0.41417   0.41572
 Alpha virt. eigenvalues --    0.41856   0.42062   0.42271   0.42427   0.42508
 Alpha virt. eigenvalues --    0.42575   0.42583   0.43025   0.43207   0.43473
 Alpha virt. eigenvalues --    0.43512   0.43832   0.44095   0.44336   0.44489
 Alpha virt. eigenvalues --    0.44781   0.44947   0.45202   0.45441   0.45856
 Alpha virt. eigenvalues --    0.45906   0.46095   0.46268   0.46460   0.46466
 Alpha virt. eigenvalues --    0.46856   0.46988   0.47280   0.47449   0.47599
 Alpha virt. eigenvalues --    0.47629   0.47923   0.48134   0.48752   0.48824
 Alpha virt. eigenvalues --    0.49303   0.49637   0.49698   0.49800   0.50199
 Alpha virt. eigenvalues --    0.50266   0.50533   0.50702   0.50860   0.51075
 Alpha virt. eigenvalues --    0.51448   0.51890   0.52398   0.53250   0.53801
 Alpha virt. eigenvalues --    0.54072   0.54216   0.54588   0.54879   0.54983
 Alpha virt. eigenvalues --    0.55321   0.56765   0.57265   0.57466   0.57575
 Alpha virt. eigenvalues --    0.58464   0.58768   0.59050   0.59206   0.59424
 Alpha virt. eigenvalues --    0.59934   0.60668   0.60753   0.60989   0.61518
 Alpha virt. eigenvalues --    0.61680   0.61694   0.61866   0.62245   0.62510
 Alpha virt. eigenvalues --    0.62511   0.62707   0.63115   0.63441   0.63464
 Alpha virt. eigenvalues --    0.64003   0.64037   0.64878   0.64984   0.65885
 Alpha virt. eigenvalues --    0.66031   0.66130   0.66287   0.66348   0.66423
 Alpha virt. eigenvalues --    0.67209   0.67359   0.68909   0.70058   0.70751
 Alpha virt. eigenvalues --    0.70971   0.71021   0.71465   0.71639   0.72109
 Alpha virt. eigenvalues --    0.72535   0.72670   0.72813   0.73075   0.73664
 Alpha virt. eigenvalues --    0.74014   0.74728   0.75360   0.75381   0.76040
 Alpha virt. eigenvalues --    0.76055   0.77083   0.77432   0.77433   0.77800
 Alpha virt. eigenvalues --    0.78331   0.78885   0.79221   0.79237   0.80536
 Alpha virt. eigenvalues --    0.80614   0.80845   0.81293   0.81338   0.81910
 Alpha virt. eigenvalues --    0.82315   0.82613   0.82767   0.83101   0.83247
 Alpha virt. eigenvalues --    0.83494   0.84108   0.84547   0.85300   0.85318
 Alpha virt. eigenvalues --    0.85629   0.86307   0.87308   0.87751   0.88146
 Alpha virt. eigenvalues --    0.89390   0.89586   0.90497   0.90526   0.90808
 Alpha virt. eigenvalues --    0.91076   0.91632   0.92284   0.93324   0.93814
 Alpha virt. eigenvalues --    0.93927   0.94528   0.95261   0.95544   0.95747
 Alpha virt. eigenvalues --    0.96077   0.96216   0.96512   0.96592   0.97111
 Alpha virt. eigenvalues --    0.98064   0.98682   0.99065   0.99086   0.99280
 Alpha virt. eigenvalues --    0.99495   0.99966   1.01143   1.01838   1.02200
 Alpha virt. eigenvalues --    1.02501   1.02782   1.03422   1.03743   1.03967
 Alpha virt. eigenvalues --    1.04190   1.04789   1.05110   1.05118   1.05565
 Alpha virt. eigenvalues --    1.05750   1.06054   1.06056   1.06153   1.06290
 Alpha virt. eigenvalues --    1.06756   1.07088   1.07125   1.08053   1.08183
 Alpha virt. eigenvalues --    1.08866   1.09100   1.09239   1.09646   1.10189
 Alpha virt. eigenvalues --    1.10787   1.11124   1.11681   1.12476   1.12735
 Alpha virt. eigenvalues --    1.12815   1.12941   1.13196   1.13947   1.13979
 Alpha virt. eigenvalues --    1.14882   1.15249   1.15327   1.16101   1.16351
 Alpha virt. eigenvalues --    1.17184   1.17870   1.18234   1.19086   1.20521
 Alpha virt. eigenvalues --    1.21021   1.21939   1.22611   1.22774   1.23018
 Alpha virt. eigenvalues --    1.24100   1.25239   1.27420   1.27787   1.30125
 Alpha virt. eigenvalues --    1.30451   1.30863   1.31724   1.32259   1.33097
 Alpha virt. eigenvalues --    1.34636   1.35423   1.35994   1.36455   1.37174
 Alpha virt. eigenvalues --    1.38748   1.39103   1.39555   1.39904   1.40337
 Alpha virt. eigenvalues --    1.40383   1.40814   1.40840   1.41534   1.42246
 Alpha virt. eigenvalues --    1.42817   1.43225   1.43836   1.44182   1.44591
 Alpha virt. eigenvalues --    1.44930   1.45766   1.46403   1.46988   1.47041
 Alpha virt. eigenvalues --    1.47531   1.47799   1.48326   1.48722   1.48793
 Alpha virt. eigenvalues --    1.48867   1.49617   1.49972   1.50090   1.50497
 Alpha virt. eigenvalues --    1.50833   1.51283   1.51594   1.52355   1.52907
 Alpha virt. eigenvalues --    1.53017   1.53491   1.53633   1.53891   1.53902
 Alpha virt. eigenvalues --    1.54572   1.54658   1.55091   1.55101   1.55157
 Alpha virt. eigenvalues --    1.55616   1.56871   1.57811   1.57872   1.58157
 Alpha virt. eigenvalues --    1.58979   1.58980   1.59408   1.60391   1.60705
 Alpha virt. eigenvalues --    1.61675   1.61830   1.62321   1.62803   1.63892
 Alpha virt. eigenvalues --    1.64569   1.64992   1.66118   1.66780   1.67506
 Alpha virt. eigenvalues --    1.69099   1.69176   1.69197   1.70083   1.70404
 Alpha virt. eigenvalues --    1.70490   1.71413   1.71454   1.72093   1.72723
 Alpha virt. eigenvalues --    1.72821   1.73213   1.73266   1.73432   1.73747
 Alpha virt. eigenvalues --    1.73763   1.74263   1.74592   1.74703   1.76455
 Alpha virt. eigenvalues --    1.77001   1.77904   1.78254   1.78738   1.79469
 Alpha virt. eigenvalues --    1.79955   1.80014   1.80053   1.81267   1.81834
 Alpha virt. eigenvalues --    1.82037   1.82153   1.82402   1.82533   1.82791
 Alpha virt. eigenvalues --    1.83358   1.83447   1.83804   1.84783   1.85067
 Alpha virt. eigenvalues --    1.85145   1.86420   1.86991   1.87214   1.87369
 Alpha virt. eigenvalues --    1.87584   1.87754   1.88021   1.88355   1.88470
 Alpha virt. eigenvalues --    1.88593   1.88802   1.88875   1.89532   1.90299
 Alpha virt. eigenvalues --    1.90696   1.91456   1.91661   1.91949   1.92151
 Alpha virt. eigenvalues --    1.92235   1.92948   1.92951   1.93195   1.93438
 Alpha virt. eigenvalues --    1.93548   1.93669   1.94118   1.94409   1.95268
 Alpha virt. eigenvalues --    1.95590   1.95658   1.96208   1.96236   1.97031
 Alpha virt. eigenvalues --    1.98127   1.99554   2.00190   2.00345   2.00757
 Alpha virt. eigenvalues --    2.01030   2.01094   2.02264   2.02544   2.03798
 Alpha virt. eigenvalues --    2.05106   2.05344   2.07504   2.07770   2.08606
 Alpha virt. eigenvalues --    2.09079   2.09245   2.09955   2.10679   2.11039
 Alpha virt. eigenvalues --    2.11052   2.11668   2.12966   2.13879   2.14938
 Alpha virt. eigenvalues --    2.15209   2.15788   2.16420   2.16674   2.17209
 Alpha virt. eigenvalues --    2.17922   2.19239   2.20333   2.21381   2.21767
 Alpha virt. eigenvalues --    2.22127   2.22470   2.22888   2.22995   2.23617
 Alpha virt. eigenvalues --    2.23991   2.24839   2.25303   2.26575   2.26642
 Alpha virt. eigenvalues --    2.26715   2.27197   2.27223   2.27577   2.27941
 Alpha virt. eigenvalues --    2.27993   2.29020   2.29109   2.30154   2.31562
 Alpha virt. eigenvalues --    2.33652   2.34651   2.35203   2.36515   2.38708
 Alpha virt. eigenvalues --    2.38841   2.40108   2.40344   2.40350   2.41698
 Alpha virt. eigenvalues --    2.42324   2.42643   2.43668   2.44084   2.45208
 Alpha virt. eigenvalues --    2.45438   2.45981   2.46577   2.46788   2.48205
 Alpha virt. eigenvalues --    2.51356   2.52591   2.52701   2.52991   2.54056
 Alpha virt. eigenvalues --    2.54352   2.54681   2.55241   2.55799   2.56866
 Alpha virt. eigenvalues --    2.57317   2.58252   2.58686   2.59027   2.59270
 Alpha virt. eigenvalues --    2.59641   2.60277   2.60469   2.60977   2.61006
 Alpha virt. eigenvalues --    2.61161   2.61502   2.61530   2.61837   2.62844
 Alpha virt. eigenvalues --    2.62964   2.63373   2.63836   2.64219   2.64292
 Alpha virt. eigenvalues --    2.65246   2.65348   2.65595   2.66282   2.66813
 Alpha virt. eigenvalues --    2.66820   2.67173   2.67704   2.67721   2.67798
 Alpha virt. eigenvalues --    2.67846   2.68830   2.68974   2.69155   2.69254
 Alpha virt. eigenvalues --    2.69292   2.69383   2.69635   2.70060   2.70172
 Alpha virt. eigenvalues --    2.70542   2.70774   2.71375   2.71795   2.72007
 Alpha virt. eigenvalues --    2.72587   2.73020   2.73454   2.73966   2.74088
 Alpha virt. eigenvalues --    2.74452   2.74854   2.75756   2.76125   2.76658
 Alpha virt. eigenvalues --    2.77023   2.77155   2.77695   2.78355   2.78672
 Alpha virt. eigenvalues --    2.78855   2.79018   2.79597   2.79697   2.80327
 Alpha virt. eigenvalues --    2.80954   2.81798   2.82221   2.83244   2.84807
 Alpha virt. eigenvalues --    2.85376   2.86023   2.86228   2.86711   2.86847
 Alpha virt. eigenvalues --    2.87588   2.88397   2.89113   2.90479   2.91664
 Alpha virt. eigenvalues --    2.92229   2.92721   2.92808   2.93234   2.93337
 Alpha virt. eigenvalues --    2.95314   2.95704   2.95761   2.97354   2.97491
 Alpha virt. eigenvalues --    2.98761   2.99057   3.00363   3.01285   3.02519
 Alpha virt. eigenvalues --    3.04201   3.05156   3.06069   3.06957   3.06970
 Alpha virt. eigenvalues --    3.07963   3.08441   3.15616   3.15911   3.16454
 Alpha virt. eigenvalues --    3.16826   3.17091   3.17645   3.19318   3.20125
 Alpha virt. eigenvalues --    3.20692   3.21005   3.23615   3.24409   3.29033
 Alpha virt. eigenvalues --    3.29698   3.30039   3.30537   3.31107   3.32584
 Alpha virt. eigenvalues --    3.34978   3.35300   3.36078   3.36266   3.36460
 Alpha virt. eigenvalues --    3.36837   3.36991   3.37495   3.38888   3.39138
 Alpha virt. eigenvalues --    3.39426   3.40813   3.40875   3.42398   3.44508
 Alpha virt. eigenvalues --    3.44876   3.45803   3.46302   3.48797   3.48970
 Alpha virt. eigenvalues --    3.49878   3.50655   3.50763   3.51299   3.52738
 Alpha virt. eigenvalues --    3.54200   3.56959   3.58250   3.58300   3.59572
 Alpha virt. eigenvalues --    3.61163   3.62245   3.62378   3.63329   3.63618
 Alpha virt. eigenvalues --    3.63666   3.65730   3.66310   3.66418   3.67766
 Alpha virt. eigenvalues --    3.68258   3.68347   3.70126   3.70329   4.00001
 Alpha virt. eigenvalues --    4.00064   4.01371   4.01578   4.01631   4.01707
 Alpha virt. eigenvalues --    4.02692   4.03031   4.15638   4.16200   4.17072
 Alpha virt. eigenvalues --    4.17341   4.17944   4.19996   4.20751   4.21899
 Alpha virt. eigenvalues --    4.22018   4.22320   4.23535   4.24020   4.25391
 Alpha virt. eigenvalues --    4.27675   4.38160   4.39928   4.61722   4.63502
 Alpha virt. eigenvalues --    4.78623   4.79209   4.79996   4.80215   4.80669
 Alpha virt. eigenvalues --    4.81657   4.81997   4.82448   4.83790   4.84176
 Alpha virt. eigenvalues --   23.39472  23.42173  23.54807  23.57511  23.69432
 Alpha virt. eigenvalues --   23.71526  23.76921  23.78374  23.80766  23.81070
 Alpha virt. eigenvalues --   23.81967  23.82768  23.85623  23.87042  23.88582
 Alpha virt. eigenvalues --   23.89507  23.90006  23.90460  23.91701  23.93223
 Alpha virt. eigenvalues --   23.96983  23.98079  23.98433  23.99207  24.08684
 Alpha virt. eigenvalues --   24.09451  24.09890  24.10098  24.10723  24.11320
 Alpha virt. eigenvalues --   24.11672  24.13212  24.13225  24.13813  24.14752
 Alpha virt. eigenvalues --   24.15279  24.15316  24.15423  24.16487  24.16520
 Alpha virt. eigenvalues --   24.19944  24.19989  24.21310  24.21367
          Condensed to atoms (all electrons):
 Mulliken charges:
               1
     1  C   -0.065811
     2  C   -0.057980
     3  C   -0.052493
     4  C   -0.063092
     5  C   -0.093159
     6  C   -0.093020
     7  C   -0.008916
     8  C   -0.062968
     9  C   -0.028166
    10  C   -0.050233
    11  H    0.084880
    12  H    0.077610
    13  H    0.076878
    14  H    0.084780
    15  H    0.097589
    16  H    0.097306
    17  C   -0.013283
    18  C   -0.062968
    19  C   -0.032556
    20  C   -0.050233
    21  H    0.076270
    22  H    0.075549
    23  C   -0.008916
    24  C   -0.065811
    25  C   -0.028166
    26  C   -0.057980
    27  H    0.077610
    28  H    0.076878
    29  C   -0.052493
    30  C   -0.093159
    31  C   -0.063092
    32  C   -0.093020
    33  H    0.084880
    34  H    0.097306
    35  H    0.097589
    36  H    0.084780
    37  C   -0.039558
    38  C   -0.097515
    39  C   -0.061071
    40  C   -0.053716
    41  C   -0.088810
    42  C   -0.110823
    43  C   -0.026063
    44  C   -0.030649
    45  C   -0.012225
    46  C   -0.098696
    47  H    0.079258
    48  H    0.071313
    49  H    0.110561
    50  H    0.114778
    51  H    0.089058
    52  H    0.091749
    53  C   -0.030383
    54  C   -0.030649
    55  C   -0.015748
    56  C   -0.098696
    57  H    0.069897
    58  H    0.108661
    59  C   -0.026063
    60  C   -0.039558
    61  C   -0.012225
    62  C   -0.097515
    63  H    0.071313
    64  H    0.110561
    65  C   -0.061071
    66  C   -0.088810
    67  C   -0.053716
    68  C   -0.110823
    69  H    0.079258
    70  H    0.091749
    71  H    0.089058
    72  H    0.114778
 Sum of Mulliken charges =   0.00000
 Mulliken charges with hydrogens summed into heavy atoms:
               1
     1  C   -0.065811
     2  C   -0.057980
     3  C    0.032386
     4  C    0.021688
     5  C    0.004147
     6  C    0.004568
     7  C    0.068694
     8  C   -0.062968
     9  C    0.048712
    10  C   -0.050233
    17  C    0.062988
    18  C   -0.062968
    19  C    0.042993
    20  C   -0.050233
    23  C    0.068694
    24  C   -0.065811
    25  C    0.048712
    26  C   -0.057980
    29  C    0.032386
    30  C    0.004147
    31  C    0.021688
    32  C    0.004568
    37  C   -0.039558
    38  C   -0.097515
    39  C    0.018187
    40  C    0.061062
    41  C    0.002940
    42  C   -0.021765
    43  C    0.045250
    44  C   -0.030649
    45  C    0.098337
    46  C   -0.098696
    53  C    0.039515
    54  C   -0.030649
    55  C    0.092913
    56  C   -0.098696
    59  C    0.045250
    60  C   -0.039558
    61  C    0.098337
    62  C   -0.097515
    65  C    0.018187
    66  C    0.002940
    67  C    0.061062
    68  C   -0.021765
         Mulliken charges condensed to fragments:
      1     -0.007612
      2      0.007612
 Electronic spatial extent (au):  <R**2>=          26972.6757
 Charge=              0.0000 electrons
 Dipole moment (field-independent basis, Debye):
    X=              0.1549    Y=             -1.2251    Z=              0.0000  Tot=              1.2349
 Quadrupole moment (field-independent basis, Debye-Ang):
   XX=           -246.1573   YY=           -248.9853   ZZ=           -219.4632
   XY=             -0.0916   XZ=              0.0000   YZ=              0.0000
 Traceless Quadrupole moment (field-independent basis, Debye-Ang):
   XX=             -7.9554   YY=            -10.7834   ZZ=             18.7388
   XY=             -0.0916   XZ=              0.0000   YZ=              0.0000
 Octapole moment (field-independent basis, Debye-Ang**2):
  XXX=             14.5727  YYY=            192.6533  ZZZ=              0.0000  XYY=             -3.0673
  XXY=            -76.4946  XXZ=              0.0000  XZZ=              2.7086  YZZ=            -28.7234
  YYZ=              0.0000  XYZ=              0.0000
 Hexadecapole moment (field-independent basis, Debye-Ang**3):
 XXXX=          -1307.6954 YYYY=         -13191.6134 ZZZZ=         -21013.7860 XXXY=            368.8051
 XXXZ=              0.0000 YYYX=            371.9070 YYYZ=              0.0000 ZZZX=              0.0000
 ZZZY=              0.0000 XXYY=          -2490.5921 XXZZ=          -4170.7707 YYZZ=          -5952.5892
 XXYZ=              0.0000 YYXZ=              0.0000 ZZXY=            108.9760
 N-N= 4.555423666047D+03 E-N=-1.304128500646D+04  KE= 1.686673194701D+03
 Symmetry A'   KE= 9.134144411699D+02
 Symmetry A"   KE= 7.732587535306D+02
 No NMR shielding tensors so no spin-rotation constants.
 Leave Link  601 at Wed Sep 27 16:59:29 2023, MaxMem=  3221225472 cpu:              50.8 elap:               1.4
 (Enter /home/center/opt/aarch64/apps/gaussian16/c01/g16/l122.exe)
 CPIOFr:  IOpCl= 0 IRwI=-1 IRwCP=  731 ICalc= -1 LCPTot=     1419224 Len1MO=     3708034 IndFrg=     1419224
 CPIOFr:  IOpCl= 0 IRwI=-1 IRwCP=  731 ICalc=  0 LCPTot=     1419224 Len1MO=     3708034 IndFrg=     5127258
 Counterpoise: doing calculation for fragment   1 using the basis set of the full-system, NewBq=T
 Leave Link  122 at Wed Sep 27 16:59:32 2023, MaxMem=  3221225472 cpu:               8.4 elap:               0.3
 (Enter /home/center/opt/aarch64/apps/gaussian16/c01/g16/l301.exe)
 Basis read from rwf:  (5D, 7F)
 No pseudopotential information found on rwf file.
 There are   528 symmetry adapted cartesian basis functions of A'  symmetry.
 There are   476 symmetry adapted cartesian basis functions of A"  symmetry.
 There are   504 symmetry adapted basis functions of A'  symmetry.
 There are   456 symmetry adapted basis functions of A"  symmetry.
   960 basis functions,  1632 primitive gaussians,  1004 cartesian basis functions
    73 alpha electrons       73 beta electrons
       nuclear repulsion energy      1494.3575060659 Hartrees.
 IExCor=  402 DFT=T Ex+Corr=B3LYP ExCW=0 ScaHFX=  0.200000
 ScaDFX=  0.800000  0.720000  1.000000  0.810000 ScalE2=  1.000000  1.000000
 IRadAn=      5 IRanWt=     -1 IRanGd=            0 ICorTp=0 IEmpDi=131
 NAtoms=   72 NActive=   72 NUniq=   40 SFac= 3.24D+00 NAtFMM=   60 NAOKFM=T Big=F
 Integral buffers will be    131072 words long.
 Raffenetti 2 integral format.
 Two-electron integral symmetry is turned on.
 R6Disp:  Grimme-D3 Dispersion energy=       -0.0303938888 Hartrees.
 Nuclear repulsion after empirical dispersion term =     1494.3271121770 Hartrees.
 No density basis found on file    718.
 Leave Link  301 at Wed Sep 27 16:59:34 2023, MaxMem=  3221225472 cpu:               4.1 elap:               0.2
 (Enter /home/center/opt/aarch64/apps/gaussian16/c01/g16/l302.exe)
 NPDir=0 NMtPBC=     1 NCelOv=     1 NCel=       1 NClECP=     1 NCelD=      1
         NCelK=      1 NCelE2=     1 NClLst=     1 CellRange=     0.0.
 One-electron integrals computed using PRISM.
 One-electron integral symmetry used in STVInt
 NBasis=   960 RedAO= T EigKep=  3.90D-05  NBF=   504   456
 NBsUse=   960 1.00D-06 EigRej= -1.00D+00 NBFU=   504   456
 Precomputing XC quadrature grid using
 IXCGrd= 4 IRadAn=           5 IRanWt=          -1 IRanGd=           0 AccXCQ= 0.00D+00.
 Generated NRdTot=       0 NPtTot=           0 NUsed=           0 NTot=          32
 NSgBfM=   991   989   991   991   991 MxSgAt=    72 MxSgA2=    72.
 Leave Link  302 at Wed Sep 27 16:59:38 2023, MaxMem=  3221225472 cpu:              59.0 elap:               1.6
 (Enter /home/center/opt/aarch64/apps/gaussian16/c01/g16/l303.exe)
 DipDrv:  MaxL=1.
 Leave Link  303 at Wed Sep 27 16:59:41 2023, MaxMem=  3221225472 cpu:              13.3 elap:               0.4
 (Enter /home/center/opt/aarch64/apps/gaussian16/c01/g16/l401.exe)
 ExpMin= 1.03D-01 ExpMax= 4.56D+03 ExpMxC= 6.82D+02 IAcc=3 IRadAn=         5 AccDes= 0.00D+00
 Harris functional with IExCor=  402 and IRadAn=       5 diagonalized for initial guess.
 HarFok:  IExCor=  402 AccDes= 0.00D+00 IRadAn=         5 IDoV= 1 UseB2=F ITyADJ=14
 ICtDFT=  3500011 ScaDFX=  1.000000  1.000000  1.000000  1.000000
 FoFCou: FMM=F IPFlag=           0 FMFlag=      100000 FMFlg1=        2000
         NFxFlg=           0 DoJE=T BraDBF=F KetDBF=T FulRan=T
         wScrn=  0.000000 ICntrl=       500 IOpCl=  0 I1Cent=   200000004 NGrid=           0
         NMat0=    1 NMatS0=      1 NMatT0=    0 NMatD0=    1 NMtDS0=    0 NMtDT0=    0
 Petite list used in FoFCou.
 Harris En= -847.066030945291    
 JPrj=0 DoOrth=F DoCkMO=F.
 Initial guess orbital symmetries:
       Occupied  (A") (A') (A') (A") (A") (A') (A") (A') (A') (A")
                 (A") (A') (A') (A') (A") (A') (A") (A') (A") (A')
                 (A') (A") (A') (A") (A') (A") (A') (A') (A") (A')
                 (A") (A") (A') (A') (A") (A") (A') (A") (A') (A')
                 (A') (A") (A") (A") (A') (A') (A") (A') (A') (A")
                 (A') (A") (A") (A') (A') (A") (A') (A") (A') (A")
                 (A") (A') (A') (A") (A') (A") (A') (A") (A') (A')
                 (A") (A") (A')
       Virtual   (A') (A") (A") (A') (A') (A") (A') (A") (A') (A")
                 (A') (A') (A") (A') (A") (A') (A') (A") (A') (A")
                 (A") (A") (A') (A') (A") (A') (A') (A') (A') (A')
                 (A") (A") (A') (A") (A') (A") (A') (A") (A") (A')
                 (A') (A") (A") (A') (A") (A') (A") (A') (A") (A')
                 (A') (A") (A') (A") (A') (A") (A') (A') (A") (A')
                 (A") (A') (A') (A") (A") (A') (A") (A') (A") (A')
                 (A") (A') (A") (A') (A") (A') (A') (A') (A') (A')
                 (A") (A') (A") (A") (A") (A') (A') (A") (A') (A")
                 (A") (A") (A") (A') (A') (A") (A') (A") (A') (A')
                 (A') (A') (A") (A') (A") (A") (A') (A') (A') (A")
                 (A") (A') (A') (A') (A") (A') (A") (A") (A") (A")
                 (A") (A') (A") (A') (A") (A') (A') (A') (A") (A')
                 (A") (A') (A') (A') (A") (A') (A") (A') (A") (A')
                 (A') (A') (A") (A') (A") (A") (A') (A') (A") (A")
                 (A') (A") (A") (A") (A') (A") (A') (A') (A') (A")
                 (A") (A') (A') (A") (A') (A') (A") (A') (A") (A")
                 (A") (A") (A') (A') (A') (A") (A') (A") (A') (A')
                 (A') (A") (A") (A') (A") (A") (A') (A") (A") (A')
                 (A') (A') (A') (A") (A') (A') (A") (A") (A') (A")
                 (A') (A") (A") (A') (A") (A") (A') (A') (A') (A")
                 (A') (A") (A') (A") (A') (A") (A") (A") (A') (A')
                 (A") (A') (A') (A") (A') (A") (A') (A') (A') (A")
                 (A") (A') (A') (A') (A") (A") (A") (A') (A") (A")
                 (A') (A") (A') (A") (A') (A') (A") (A') (A") (A")
                 (A") (A') (A") (A') (A') (A') (A') (A') (A") (A")
                 (A') (A") (A") (A') (A') (A') (A") (A") (A') (A")
                 (A') (A") (A') (A") (A") (A') (A') (A") (A") (A')
                 (A') (A") (A') (A") (A') (A") (A') (A") (A') (A")
                 (A') (A') (A") (A') (A') (A') (A") (A") (A') (A')
                 (A") (A') (A') (A") (A") (A") (A') (A") (A") (A')
                 (A') (A") (A") (A") (A') (A') (A') (A") (A') (A')
                 (A") (A') (A") (A") (A') (A') (A") (A') (A') (A")
                 (A") (A') (A') (A') (A") (A') (A") (A') (A') (A")
                 (A") (A") (A') (A") (A') (A") (A") (A') (A') (A')
                 (A') (A") (A") (A') (A") (A') (A") (A') (A') (A")
                 (A') (A') (A") (A') (A") (A") (A") (A') (A') (A")
                 (A') (A") (A') (A") (A') (A") (A") (A') (A") (A')
                 (A") (A') (A') (A") (A") (A') (A') (A") (A') (A")
                 (A') (A") (A") (A') (A') (A") (A') (A') (A") (A")
                 (A") (A') (A') (A") (A') (A") (A") (A') (A') (A")
                 (A") (A') (A') (A') (A') (A") (A") (A") (A') (A')
                 (A") (A") (A') (A") (A') (A") (A') (A") (A') (A")
                 (A") (A') (A') (A') (A') (A') (A") (A") (A") (A')
                 (A") (A') (A') (A') (A") (A') (A") (A") (A") (A')
                 (A") (A') (A') (A') (A') (A") (A') (A") (A") (A')
                 (A") (A") (A') (A") (A') (A") (A') (A') (A") (A')
                 (A") (A') (A') (A") (A") (A") (A') (A") (A') (A")
                 (A') (A") (A") (A') (A") (A') (A') (A") (A") (A')
                 (A") (A') (A") (A') (A') (A") (A') (A') (A") (A")
                 (A') (A") (A') (A") (A') (A") (A") (A') (A') (A')
                 (A') (A") (A") (A") (A") (A") (A') (A') (A') (A')
                 (A") (A') (A") (A') (A") (A') (A") (A') (A") (A')
                 (A") (A') (A") (A') (A') (A") (A') (A") (A') (A')
                 (A') (A") (A") (A') (A') (A") (A") (A') (A') (A")
                 (A') (A") (A") (A') (A") (A") (A') (A') (A') (A")
                 (A') (A') (A") (A') (A") (A") (A") (A") (A') (A")
                 (A') (A') (A') (A') (A") (A') (A") (A') (A') (A')
                 (A") (A") (A") (A") (A') (A') (A") (A") (A") (A')
                 (A') (A') (A") (A') (A') (A") (A') (A') (A") (A")
                 (A') (A") (A") (A") (A') (A') (A') (A") (A") (A')
                 (A') (A") (A") (A') (A') (A") (A') (A") (A') (A')
                 (A") (A') (A") (A") (A') (A") (A") (A') (A') (A")
                 (A") (A') (A") (A") (A") (A') (A') (A') (A') (A")
                 (A') (A") (A') (A') (A") (A") (A') (A") (A') (A")
                 (A') (A") (A') (A") (A') (A") (A") (A') (A") (A')
                 (A") (A') (A") (A') (A") (A') (A") (A") (A') (A')
                 (A') (A") (A") (A') (A') (A") (A') (A") (A') (A')
                 (A") (A') (A") (A') (A') (A") (A") (A') (A') (A")
                 (A') (A") (A') (A') (A") (A") (A') (A") (A') (A')
                 (A") (A") (A') (A") (A') (A") (A') (A') (A") (A')
                 (A") (A') (A") (A') (A") (A') (A') (A") (A') (A')
                 (A") (A") (A') (A") (A") (A') (A') (A') (A') (A")
                 (A") (A") (A') (A") (A') (A") (A') (A") (A") (A')
                 (A") (A') (A") (A') (A") (A') (A') (A") (A") (A')
                 (A') (A") (A') (A') (A") (A') (A") (A') (A") (A')
                 (A") (A') (A') (A") (A") (A') (A') (A') (A") (A")
                 (A") (A') (A') (A") (A') (A') (A") (A') (A") (A')
                 (A") (A') (A') (A") (A") (A") (A') (A") (A') (A')
                 (A") (A") (A') (A") (A') (A") (A') (A') (A') (A")
                 (A") (A') (A") (A') (A") (A') (A") (A') (A') (A")
                 (A") (A') (A') (A") (A') (A") (A") (A') (A") (A')
[...]
                 (A') (A') (A') (A") (A') (A") (A") (A') (A') (A")
                 (A") (A') (A') (A") (A') (A") (A") (A") (A') (A")
                 (A') (A') (A') (A') (A') (A") (A') (A') (A") (A")
                 (A") (A') (A') (A') (A") (A') (A") (A") (A") (A')
                 (A') (A") (A') (A") (A") (A') (A") (A') (A') (A')
                 (A') (A') (A") (A") (A") (A") (A') (A") (A') (A")
                 (A') (A') (A') (A") (A") (A') (A') (A") (A') (A")
                 (A') (A") (A") (A") (A') (A') (A") (A') (A') (A")
                 (A') (A") (A") (A') (A') (A") (A') (A") (A') (A")
                 (A") (A') (A') (A') (A') (A") (A") (A") (A') (A")
                 (A') (A") (A') (A") (A') (A') (A") (A") (A') (A")
                 (A') (A") (A') (A") (A') (A') (A") (A') (A") (A")
                 (A') (A") (A') (A') (A") (A") (A') (A") (A') (A")
                 (A') (A') (A") (A') (A') (A") (A") (A') (A') (A')
                 (A") (A') (A") (A") (A") (A") (A') (A") (A') (A')
                 (A") (A') (A") (A') (A') (A') (A") (A') (A") (A')
                 (A") (A") (A') (A') (A") (A") (A') (A') (A") (A')
                 (A') (A') (A') (A") (A") (A") (A") (A') (A') (A")
                 (A') (A") (A") (A') (A") (A') (A") (A') (A") (A')
                 (A") (A') (A') (A") (A') (A") (A") (A') (A') (A")
                 (A") (A') (A') (A") (A") (A') (A") (A") (A") (A')
                 (A') (A") (A') (A') (A") (A') (A') (A") (A') (A")
                 (A") (A') (A") (A') (A') (A") (A") (A") (A') (A')
                 (A") (A') (A') (A") (A") (A") (A') (A") (A') (A')
                 (A") (A') (A") (A') (A") (A') (A') (A') (A") (A')
                 (A") (A") (A') (A') (A") (A") (A') (A") (A') (A")
                 (A') (A') (A") (A") (A') (A') (A") (A') (A') (A')
                 (A") (A") (A') (A") (A') (A") (A') (A") (A') (A')
                 (A') (A") (A") (A") (A') (A") (A') (A') (A') (A")
                 (A") (A') (A") (A') (A') (A") (A') (A") (A") (A')
                 (A') (A") (A') (A") (A") (A') (A') (A") (A') (A")
                 (A') (A") (A') (A") (A') (A") (A") (A') (A') (A")
                 (A') (A") (A') (A') (A") (A") (A') (A") (A') (A')
                 (A") (A') (A") (A') (A') (A") (A') (A") (A') (A")
                 (A") (A') (A") (A') (A") (A') (A") (A') (A') (A")
                 (A") (A') (A") (A') (A') (A") (A") (A') (A') (A")
                 (A') (A") (A') (A") (A') (A') (A")
 The electronic state is 1-A'.
 Alpha  occ. eigenvalues --  -10.18931 -10.18930 -10.18896 -10.18895 -10.18848
 Alpha  occ. eigenvalues --  -10.18848 -10.18813 -10.18813 -10.17956 -10.17955
 Alpha  occ. eigenvalues --  -10.17920 -10.17920 -10.17919 -10.17919 -10.17875
 Alpha  occ. eigenvalues --  -10.17875 -10.17863 -10.17863 -10.17808 -10.17808
 Alpha  occ. eigenvalues --  -10.17781 -10.17781  -0.89340  -0.87865  -0.85549
 Alpha  occ. eigenvalues --   -0.82415  -0.79820  -0.78521  -0.78314  -0.75991
 Alpha  occ. eigenvalues --   -0.74255  -0.72901  -0.69196  -0.67344  -0.62728
 Alpha  occ. eigenvalues --   -0.62370  -0.61108  -0.59964  -0.59301  -0.57689
 Alpha  occ. eigenvalues --   -0.52709  -0.52573  -0.52293  -0.49654  -0.48513
 Alpha  occ. eigenvalues --   -0.47160  -0.46110  -0.45590  -0.45476  -0.43928
 Alpha  occ. eigenvalues --   -0.43182  -0.42578  -0.41808  -0.41572  -0.41386
 Alpha  occ. eigenvalues --   -0.40692  -0.40405  -0.39579  -0.38193  -0.36732
 Alpha  occ. eigenvalues --   -0.36341  -0.35550  -0.34094  -0.33809  -0.33058
 Alpha  occ. eigenvalues --   -0.32930  -0.31612  -0.29665  -0.28406  -0.26623
 Alpha  occ. eigenvalues --   -0.24364  -0.22582  -0.17855
 Alpha virt. eigenvalues --   -0.09755  -0.04464  -0.02747  -0.00147   0.02073
 Alpha virt. eigenvalues --    0.02370   0.03189   0.04746   0.04859   0.04871
 Alpha virt. eigenvalues --    0.06161   0.06575   0.07968   0.08162   0.08303
 Alpha virt. eigenvalues --    0.09607   0.10049   0.11524   0.11533   0.13796
 Alpha virt. eigenvalues --    0.14111   0.14670   0.18092   0.18194   0.18832
 Alpha virt. eigenvalues --    0.19391   0.22815   0.23002   0.24379   0.24942
 Alpha virt. eigenvalues --    0.25581   0.27528   0.27575   0.28012   0.28228
 Alpha virt. eigenvalues --    0.28947   0.29389   0.30158   0.30759   0.31175
 Alpha virt. eigenvalues --    0.32897   0.34528   0.36420   0.36484   0.37134
 Alpha virt. eigenvalues --    0.37503   0.37629   0.37651   0.38116   0.38643
 Alpha virt. eigenvalues --    0.39094   0.39439   0.39739   0.40236   0.40435
 Alpha virt. eigenvalues --    0.41918   0.41926   0.41940   0.42289   0.42318
 Alpha virt. eigenvalues --    0.42643   0.43748   0.44233   0.44835   0.45295
 Alpha virt. eigenvalues --    0.45683   0.45924   0.45953   0.46379   0.47165
 Alpha virt. eigenvalues --    0.47805   0.47809   0.47978   0.48073   0.48231
 Alpha virt. eigenvalues --    0.48568   0.49414   0.49572   0.51377   0.51846
 Alpha virt. eigenvalues --    0.52370   0.53118   0.53671   0.55998   0.57923
 Alpha virt. eigenvalues --    0.57955   0.59048   0.59201   0.60433   0.60585
 Alpha virt. eigenvalues --    0.60693   0.61101   0.61690   0.62105   0.62173
 Alpha virt. eigenvalues --    0.63432   0.63481   0.64458   0.64535   0.65533
 Alpha virt. eigenvalues --    0.66693   0.66910   0.67680   0.67724   0.70658
 Alpha virt. eigenvalues --    0.71305   0.71405   0.71494   0.72803   0.73989
 Alpha virt. eigenvalues --    0.75405   0.75894   0.76289   0.77801   0.77809
 Alpha virt. eigenvalues --    0.78943   0.79160   0.79723   0.81162   0.81509
 Alpha virt. eigenvalues --    0.82881   0.83001   0.84383   0.84585   0.84713
 Alpha virt. eigenvalues --    0.88087   0.89711   0.89765   0.91536   0.92083
 Alpha virt. eigenvalues --    0.92578   0.93749   0.95806   0.96107   0.96442
 Alpha virt. eigenvalues --    0.96590   0.96905   0.98547   1.00356   1.01118
 Alpha virt. eigenvalues --    1.02686   1.03027   1.03354   1.04405   1.05244
 Alpha virt. eigenvalues --    1.05439   1.05525   1.05950   1.07395   1.07547
 Alpha virt. eigenvalues --    1.07686   1.08438   1.10005   1.10036   1.12070
 Alpha virt. eigenvalues --    1.13223   1.13544   1.13650   1.14526   1.15341
 Alpha virt. eigenvalues --    1.17432   1.18332   1.19657   1.20432   1.23014
 Alpha virt. eigenvalues --    1.23618   1.27884   1.28234   1.30579   1.32076
 Alpha virt. eigenvalues --    1.32743   1.34942   1.37641   1.39236   1.39896
 Alpha virt. eigenvalues --    1.39942   1.40725   1.42751   1.43476   1.43554
 Alpha virt. eigenvalues --    1.45057   1.46086   1.47119   1.47538   1.48841
 Alpha virt. eigenvalues --    1.49280   1.49417   1.50258   1.50674   1.52268
 Alpha virt. eigenvalues --    1.52650   1.53402   1.54331   1.54372   1.54781
 Alpha virt. eigenvalues --    1.54807   1.57107   1.57715   1.58569   1.59882
 Alpha virt. eigenvalues --    1.60106   1.62692   1.63242   1.64856   1.66641
 Alpha virt. eigenvalues --    1.69292   1.69605   1.69709   1.70649   1.71804
 Alpha virt. eigenvalues --    1.72459   1.72619   1.73075   1.73096   1.73680
 Alpha virt. eigenvalues --    1.77494   1.78519   1.79157   1.79419   1.80511
 Alpha virt. eigenvalues --    1.81616   1.81887   1.82058   1.83581   1.84039
 Alpha virt. eigenvalues --    1.85487   1.87392   1.87456   1.87577   1.87728
 Alpha virt. eigenvalues --    1.88131   1.88613   1.90743   1.91387   1.92190
 Alpha virt. eigenvalues --    1.92193   1.92572   1.92670   1.93517   1.93938
 Alpha virt. eigenvalues --    1.94544   1.95483   1.97262   1.99429   2.00088
 Alpha virt. eigenvalues --    2.00602   2.01362   2.03019   2.05757   2.08293
 Alpha virt. eigenvalues --    2.09111   2.09256   2.09792   2.12192   2.14098
 Alpha virt. eigenvalues --    2.15528   2.15584   2.17200   2.19751   2.20833
 Alpha virt. eigenvalues --    2.21576   2.22525   2.23381   2.24503   2.26441
 Alpha virt. eigenvalues --    2.26972   2.27242   2.27719   2.28046   2.29391
 Alpha virt. eigenvalues --    2.33301   2.35725   2.39155   2.39384   2.40817
 Alpha virt. eigenvalues --    2.42649   2.43076   2.45776   2.45994   2.46870
 Alpha virt. eigenvalues --    2.51623   2.51954   2.53354   2.53485   2.55138
 Alpha virt. eigenvalues --    2.56159   2.58701   2.58838   2.59764   2.59776
 Alpha virt. eigenvalues --    2.60682   2.61147   2.61719   2.62222   2.63349
 Alpha virt. eigenvalues --    2.63999   2.64478   2.66054   2.66794   2.67121
 Alpha virt. eigenvalues --    2.67374   2.68356   2.68872   2.68876   2.69372
 Alpha virt. eigenvalues --    2.69557   2.69907   2.70083   2.70281   2.73482
 Alpha virt. eigenvalues --    2.74771   2.74836   2.76066   2.77101   2.77577
 Alpha virt. eigenvalues --    2.78232   2.78455   2.78850   2.80822   2.82359
 Alpha virt. eigenvalues --    2.85535   2.85993   2.86737   2.87294   2.90966
 Alpha virt. eigenvalues --    2.91783   2.92195   2.93676   2.95232   2.95887
 Alpha virt. eigenvalues --    2.99270   2.99858   3.03165   3.05604   3.06852
 Alpha virt. eigenvalues --    3.07371   3.15988   3.16029   3.16647   3.19843
 Alpha virt. eigenvalues --    3.20017   3.23601   3.29134   3.29680   3.31610
 Alpha virt. eigenvalues --    3.35095   3.35458   3.35677   3.35858   3.38023
 Alpha virt. eigenvalues --    3.39887   3.41413   3.44960   3.45362   3.47993
 Alpha virt. eigenvalues --    3.48278   3.50401   3.53073   3.57439   3.58649
 Alpha virt. eigenvalues --    3.61466   3.62620   3.63208   3.63698   3.65910
 Alpha virt. eigenvalues --    3.67534   3.67678   4.00384   4.00442   4.01859
 Alpha virt. eigenvalues --    4.02182   4.16133   4.16678   4.17360   4.21240
 Alpha virt. eigenvalues --    4.22396   4.22517   4.25488   4.38492   4.62290
 Alpha virt. eigenvalues --    4.79179   4.79740   4.80562   4.82562   4.83014
 Alpha virt. eigenvalues --   23.39176  23.54541  23.69085  23.77378  23.80419
 Alpha virt. eigenvalues --   23.81537  23.86099  23.89067  23.89154  23.92210
 Alpha virt. eigenvalues --   23.97563  23.98365  24.09049  24.09932  24.10529
 Alpha virt. eigenvalues --   24.12220  24.13779  24.14375  24.15775  24.15810
 Alpha virt. eigenvalues --   24.20452  24.20497
          Condensed to atoms (all electrons):
 Mulliken charges:
               1
     1  C    0.000000
     2  C    0.000000
     3  C    0.000000
     4  C    0.000000
     5  C    0.000000
     6  C    0.000000
     7  C    0.000000
     8  C    0.000000
     9  C    0.000000
    10  C    0.000000
    11  H    0.000000
    12  H    0.000000
    13  H    0.000000
    14  H    0.000000
    15  H    0.000000
    16  H    0.000000
    17  C    0.000000
    18  C    0.000000
    19  C    0.000000
    20  C    0.000000
    21  H    0.000000
    22  H    0.000000
    23  C    0.000000
    24  C    0.000000
    25  C    0.000000
    26  C    0.000000
    27  H    0.000000
    28  H    0.000000
    29  C    0.000000
    30  C    0.000000
    31  C    0.000000
    32  C    0.000000
    33  H    0.000000
    34  H    0.000000
    35  H    0.000000
    36  H    0.000000
    37  C   -0.059168
    38  C   -0.059168
    39  C   -0.055977
    40  C   -0.055977
    41  C   -0.092198
    42  C   -0.092198
    43  C   -0.016525
    44  C   -0.054498
    45  C   -0.016525
    46  C   -0.054498
    47  H    0.082122
    48  H    0.074853
    49  H    0.074853
    50  H    0.082122
    51  H    0.094847
    52  H    0.094847
    53  C   -0.020341
    54  C   -0.054498
    55  C   -0.020341
    56  C   -0.054498
    57  H    0.073428
    58  H    0.073428
    59  C   -0.016525
    60  C   -0.059168
    61  C   -0.016525
    62  C   -0.059168
    63  H    0.074853
    64  H    0.074853
    65  C   -0.055977
    66  C   -0.092198
    67  C   -0.055977
    68  C   -0.092198
    69  H    0.082122
    70  H    0.094847
    71  H    0.094847
    72  H    0.082122
 Sum of Mulliken charges =   0.00000
 Mulliken charges with hydrogens summed into heavy atoms:
               1
     1  C    0.000000
     2  C    0.000000
     3  C    0.000000
     4  C    0.000000
     5  C    0.000000
     6  C    0.000000
     7  C    0.000000
     8  C    0.000000
     9  C    0.000000
    10  C    0.000000
    17  C    0.000000
    18  C    0.000000
    19  C    0.000000
    20  C    0.000000
    23  C    0.000000
    24  C    0.000000
    25  C    0.000000
    26  C    0.000000
    29  C    0.000000
    30  C    0.000000
    31  C    0.000000
    32  C    0.000000
    37  C   -0.059168
    38  C   -0.059168
    39  C    0.026144
    40  C    0.026144
    41  C    0.002649
    42  C    0.002649
    43  C    0.058328
    44  C   -0.054498
    45  C    0.058328
    46  C   -0.054498
    53  C    0.053087
    54  C   -0.054498
    55  C    0.053087
    56  C   -0.054498
    59  C    0.058328
    60  C   -0.059168
    61  C    0.058328
    62  C   -0.059168
    65  C    0.026144
    66  C    0.002649
    67  C    0.026144
    68  C    0.002649
         Mulliken charges condensed to fragments:
      1      0.000000
      2      0.000000
 Electronic spatial extent (au):  <R**2>=          18715.5297
 Charge=              0.0000 electrons
 Dipole moment (field-independent basis, Debye):
    X=              0.0000    Y=              0.0000    Z=              0.0000  Tot=              0.0000
 Quadrupole moment (field-independent basis, Debye-Ang):
   XX=           -136.3921   YY=           -110.7480   ZZ=           -109.0115
   XY=              0.0000   XZ=              0.0000   YZ=              0.0000
 Traceless Quadrupole moment (field-independent basis, Debye-Ang):
   XX=            -17.6749   YY=              7.9692   ZZ=              9.7057
   XY=              0.0000   XZ=              0.0000   YZ=              0.0000
 Octapole moment (field-independent basis, Debye-Ang**2):
  XXX=           1229.6578  YYY=            998.4612  ZZZ=              0.0000  XYY=            332.8204
  XXY=            409.8859  XXZ=              0.0000  XZZ=            327.6017  YZZ=            327.6017
  YYZ=              0.0000  XYZ=              0.0000
 Hexadecapole moment (field-independent basis, Debye-Ang**3):
 XXXX=          -7545.1486 YYYY=          -7117.8757 ZZZZ=         -10461.4324 XXXY=          -3695.3723
 XXXZ=              0.0000 YYYX=          -3000.5795 YYYZ=              0.0000 ZZZX=              0.0000
 ZZZY=              0.0000 XXYY=          -2488.3993 XXZZ=          -3192.4419 YYZZ=          -2953.7243
 XXYZ=              0.0000 YYXZ=              0.0000 ZZXY=           -984.5099
 N-N= 1.494327111324D+03 E-N=-4.953709174165D+03  KE= 8.433374904716D+02
 Symmetry A'   KE= 4.567052305305D+02
 Symmetry A"   KE= 3.866322599410D+02
 No NMR shielding tensors so no spin-rotation constants.
 Leave Link  601 at Wed Sep 27 17:15:48 2023, MaxMem=  3221225472 cpu:              19.9 elap:               0.5
 (Enter /home/center/opt/aarch64/apps/gaussian16/c01/g16/l122.exe)
 CPIOFr:  IOpCl= 0 IRwI=-1 IRwCP=  731 ICalc=  4 LCPTot=     1419224 Len1MO=     3708034 IndFrg=    19959394
 Restoring MOs from calculation   1 to rwf.
 CPIOFr:  IOpCl= 0 IRwI=-2 IRwCP=  731 ICalc=  0 LCPTot=     1419224 Len1MO=     3708034 IndFrg=     5127258
 Counterpoise corrected energy =   -1694.040972368316
                   BSSE energy =       0.000002575156
              sum of fragments =   -1694.039683044255
           complexation energy =      -0.81 kcal/mole (raw)
           complexation energy =      -0.81 kcal/mole (corrected)
 Leave Link  122 at Wed Sep 27 17:15:51 2023, MaxMem=  3221225472 cpu:               8.3 elap:               0.3
 (Enter /home/center/opt/aarch64/apps/gaussian16/c01/g16/l9999.exe)

 Test job not archived.
 1\1\GINC-FX0471\SP\RB3LYP\6-311G(d,p)\C44H28\Z40145W\27-Sep-2023\0\\#P
  TEST b3lyp/6-311G** EmpiricalDispersion=GD3 counterpoise=2\\pentacene
 _A1=0_A2=0_A3=45_p2\\0,1\C,0,-0.5039478476,0.5239478476,-3.6612755801\
 C,0,0.5239480325,-0.5039480325,-3.6612755629\C,0,-0.9861248463,1.00612
 48463,-4.9235927708\C,0,1.0061250889,-0.9861250889,-4.9235926697\C,0,-
 0.4963213507,0.5163213507,-6.096356521\C,0,0.5163216812,-0.4963216812,
 -6.0963564796\C,0,-0.9844684311,1.0044684311,-2.4533174875\C,0,-0.5044
 88426,0.524488426,-1.2140288145\C,0,1.0044685359,-0.9844685359,-2.4533
 173917\C,0,0.5244885437,-0.5044885437,-1.2140288362\H,0,-1.7533559667,
 1.7733559667,-4.9232600459\H,0,-1.7521866813,1.7721866813,-2.453928581
 5\H,0,1.7721859268,-1.7521859268,-2.4539284818\H,0,1.7733558421,-1.753
 3558421,-4.9232597785\H,0,0.8905568758,-0.8705568758,-7.0425276922\H,0
 ,-0.8705565046,0.8905565046,-7.042527775\C,0,-0.9848184961,1.004818496
 1,0.0099998782\C,0,-0.5044883957,0.5244883957,1.2340295553\C,0,1.00481
 85643,-0.9848185643,0.0099998696\C,0,0.5244885146,-0.5044885146,1.2340
 295261\H,0,-1.7524699697,1.7724699697,0.0099999205\H,0,1.772468921,-1.
 752468921,0.0099999641\C,0,-0.9844683048,1.0044683048,2.4733171385\C,0
 ,-0.5039477114,0.5239477114,3.681276331\C,0,1.0044684211,-0.9844684211
 ,2.4733170835\C,0,0.5239479079,-0.5039479079,3.6812763217\H,0,-1.75218
 65527,1.7721865527,2.4739285326\H,0,1.7721858092,-1.7521858092,2.47392
 83796\C,0,-0.9861245177,1.0061245177,4.9435920588\C,0,-0.4963209372,0.
 5163209372,6.116356633\C,0,1.0061247659,-0.9861247659,4.9435919377\C,0
 ,0.5163212637,-0.4963212637,6.1163566075\H,0,-1.7533556504,1.773355650
 4,4.9432601504\H,0,-0.8705567426,0.8905567426,7.0625274368\H,0,0.89055
 70967,-0.8705570967,7.0625272142\H,0,1.7733555414,-1.7533555414,4.9432
 599297\C,0,7.9960521524,0.5239478476,-3.6612755801\C,0,9.0239480325,-0
 .5039480325,-3.6612755629\C,0,7.5138751537,1.0061248463,-4.9235927708\
 C,0,9.5061250889,-0.9861250889,-4.9235926697\C,0,8.0036786493,0.516321
 3507,-6.096356521\C,0,9.0163216812,-0.4963216812,-6.0963564796\C,0,7.5
 155315689,1.0044684311,-2.4533174875\C,0,7.995511574,0.524488426,-1.21
 40288145\C,0,9.5044685359,-0.9844685359,-2.4533173917\C,0,9.0244885437
 ,-0.5044885437,-1.2140288362\H,0,6.7466440333,1.7733559667,-4.92326004
 59\H,0,6.7478133187,1.7721866813,-2.4539285815\H,0,10.2721859268,-1.75
 21859268,-2.4539284818\H,0,10.2733558421,-1.7533558421,-4.9232597785\H
 ,0,9.3905568758,-0.8705568758,-7.0425276922\H,0,7.6294434954,0.8905565
 046,-7.042527775\C,0,7.5151815039,1.0048184961,0.0099998782\C,0,7.9955
 116043,0.5244883957,1.2340295553\C,0,9.5048185643,-0.9848185643,0.0099
 998696\C,0,9.0244885146,-0.5044885146,1.2340295261\H,0,6.7475300303,1.
 7724699697,0.0099999205\H,0,10.272468921,-1.752468921,0.0099999641\C,0
 ,7.5155316952,1.0044683048,2.4733171385\C,0,7.9960522886,0.5239477114,
 3.681276331\C,0,9.5044684211,-0.9844684211,2.4733170835\C,0,9.02394790
 79,-0.5039479079,3.6812763217\H,0,6.7478134473,1.7721865527,2.47392853
 26\H,0,10.2721858092,-1.7521858092,2.4739283796\C,0,7.5138754823,1.006
 1245177,4.9435920588\C,0,8.0036790628,0.5163209372,6.116356633\C,0,9.5
 061247659,-0.9861247659,4.9435919377\C,0,9.0163212637,-0.4963212637,6.
 1163566075\H,0,6.7466443496,1.7733556504,4.9432601504\H,0,7.6294432574
 ,0.8905567426,7.0625274368\H,0,9.3905570967,-0.8705570967,7.0625272142
 \H,0,10.2733555414,-1.7533555414,4.9432599297\\Version=Fujitsu-Arm-G16
 RevC.01\State=1-A'\HF=-847.0198415\RMSD=3.183e-09\Dipole=0.0000158,-0.
 0000156,0.\Quadrupole=-7.7985625,-6.6016502,14.4002128,-18.4082435,0.,
 0.\PG=CS [SG(C4H4),X(C40H24)]\\@


 TERENCE, THIS IS STUPID STUFF:
 YOU EAT YOUR VICTUALS FAST ENOUGH;
 THERE CAN'T BE MUCH AMISS, 'TIS CLEAR
 TO SEE THE RATE YOU DRINK YOUR BEER.
 BUT OH, GOOD LORD, THE VERSE YOU MAKE,
 IT GIVES A CHAP THE BELLY-ACHE.
 THE COW, THE OLD COW, SHE IS DEAD;
 IT SLEEPS WELL, THE HORNED HEAD:
 WE POOR LADS, 'TIS OUR TURN NOW
 TO HEAR SUCH TUNES AS KILLED THE COW.
 PRETTY FRIENDSHIP 'TIS TO RHYME
 YOUR FRIENDS TO DEATH BEFORE THEIR TIME.
 MOPING, MELANCHOLY MAD:
 COME PIPE A TUNE TO DANCE TO, LAD.

     -- A. E. HOUSMAN
 Job cpu time:       0 days  2 hours 40 minutes 54.0 seconds.
 Elapsed time:       0 days  0 hours  4 minutes 13.8 seconds.
 File lengths (MBytes):  RWF=    718 Int=      0 D2E=      0 Chk=    208 Scr=      1
 Normal termination of Gaussian 16 at Wed Sep 27 17:15:57 2023.
