 Entering Gaussian System, Link 0=g16
 Initial command:
 /home/center/opt/aarch64/apps/gaussian16/c01/g16/l1.exe "/data/tmp/Gtmp/1006968/Gau-49.inp" -scrdir="/data/tmp/Gtmp/1006968/"
 Entering Link 1 = /home/center/opt/aarch64/apps/gaussian16/c01/g16/l1.exe PID=        50.
  
 Copyright (c) 1988-2019, Gaussian, Inc.  All Rights Reserved.
  
 This is part of the Gaussian(R) 16 program.  It is based on
 the Gaussian(R) 09 system (copyright 2009, Gaussian, Inc.),
 the Gaussian(R) 03 system (copyright 2003, Gaussian, Inc.),
 the Gaussian(R) 98 system (copyright 1998, Gaussian, Inc.),
 the Gaussian(R) 94 system (copyright 1995, Gaussian, Inc.),
 the Gaussian 92(TM) system (copyright 1992, Gaussian, Inc.),
 the Gaussian 90(TM) system (copyright 1990, Gaussian, Inc.),
 the Gaussian 88(TM) system (copyright 1988, Gaussian, Inc.),
 the Gaussian 86(TM) system (copyright 1986, Carnegie Mellon
 University), and the Gaussian 82(TM) system (copyright 1983,
 Carnegie Mellon University). Gaussian is a federally registered
 trademark of Gaussian, Inc.
  
 This software contains proprietary and confidential information,
 including trade secrets, belonging to Gaussian, Inc.
  
 This software is provided under written license and may be
 used, copied, transmitted, or stored only in accord with that
 written license.
  
 The following legend is applicable only to US Government
 contracts under FAR:
  
                    RESTRICTED RIGHTS LEGEND
  
 Use, reproduction and disclosure by the US Government is
 subject to restrictions as set forth in subparagraphs (a)
 and (c) of the Commercial Computer Software - Restricted
 Rights clause in FAR 52.227-19.
  
 Gaussian, Inc.
 340 Quinnipiac St., Bldg. 40, Wallingford CT 06492
  
  
 ---------------------------------------------------------------
 Warning -- This program may not be used in any manner that
 competes with the business of Gaussian, Inc. or will provide
 assistance to any competitor of Gaussian, Inc.  The licensee
 of this program is prohibited from giving any competitor of
 Gaussian, Inc. access to this program.  By using this program,
 the user acknowledges that Gaussian, Inc. is engaged in the
 business of creating and licensing software in the field of
 computational chemistry and represents and warrants to the
 licensee that it is not a competitor of Gaussian, Inc. and that
 it will not use this program in any manner prohibited above.
 ---------------------------------------------------------------
  

 Cite this work as:
 Gaussian 16, Revision C.01,
 M. J. Frisch, G. W. Trucks, H. B. Schlegel, G. E. Scuseria, 
 M. A. Robb, J. R. Cheeseman, G. Scalmani, V. Barone, 
 G. A. Petersson, H. Nakatsuji, X. Li, M. Caricato, A. V. Marenich, 
 J. Bloino, B. G. Janesko, R. Gomperts, B. Mennucci, H. P. Hratchian, 
 J. V. Ortiz, A. F. Izmaylov, J. L. Sonnenberg, D. Williams-Young, 
 F. Ding, F. Lipparini, F. Egidi, J. Goings, B. Peng, A. Petrone, 
 T. Henderson, D. Ranasinghe, V. G. Zakrzewski, J. Gao, N. Rega, 
 G. Zheng, W. Liang, M. Hada, M. Ehara, K. Toyota, R. Fukuda, 
 J. Hasegawa, M. Ishida, T. Nakajima, Y. Honda, O. Kitao, H. Nakai, 
 T. Vreven, K. Throssell, J. A. Montgomery, Jr., J. E. Peralta, 
 F. Ogliaro, M. J. Bearpark, J. J. Heyd, E. N. Brothers, K. N. Kudin, 
 V. N. Staroverov, T. A. Keith, R. Kobayashi, J. Normand, 
 K. Raghavachari, A. P. Rendell, J. C. Burant, S. S. Iyengar, 
 J. Tomasi, M. Cossi, J. M. Millam, M. Klene, C. Adamo, R. Cammi, 
 J. W. Ochterski, R. L. Martin, K. Morokuma, O. Farkas, 
 J. B. Foresman, and D. J. Fox, Gaussian, Inc., Wallingford CT, 2019.
 
 ************************************************
 Gaussian 16:  Fujitsu-Arm-G16RevC.01  3-Jul-2019
                   27-Sep-2023 
 ************************************************
 %mem=24GB
 %nproc=42
 Will use up to   42 processors via shared memory.
 -------------------------------------------------------------
 #P TEST b3lyp/6-311G** EmpiricalDispersion=GD3 counterpoise=2
 -------------------------------------------------------------
 1/38=1,62=2,172=1/1;
 2/12=2,17=6,18=5,40=1/2;
 1/38=1,53=2,62=2,63=1/22;
 3/5=4,6=6,7=101,11=2,25=1,30=1,74=-5,124=31/1,2,3;
 4//1;
 5/5=2,38=5/2;
 6/7=2,8=2,9=2,10=2,28=1/1;
 1/53=2,62=2,63=1/22;
 3/5=7,6=11,7=101,11=2,25=1,30=1,74=-5,82=7,124=31/1,2,3;
 4//1;
 5/5=2,38=5/2;
 6/7=2,8=2,9=2,10=2,28=1/1;
 1/53=2,62=2,63=1/22(-4);
 99/5=1,9=1/99;
 Leave Link    1 at Wed Sep 27 16:57:06 2023, MaxMem=  3221225472 cpu:               6.9 elap:               0.2
 (Enter /home/center/opt/aarch64/apps/gaussian16/c01/g16/l101.exe)
 ----------------------------
 pentacene_A1=0_A2=0_A3=45_t1
 ----------------------------
 Symbolic Z-matrix:
 Charge =  0 Multiplicity = 1 in supermolecule
 Charge =  0 Multiplicity = 1 in fragment      1.
 Charge =  0 Multiplicity = 1 in fragment      2.
 C(Fragment=1)        -0.50395   0.52395  -3.66128 
 C(Fragment=1)         0.52395  -0.50395  -3.66128 
 C(Fragment=1)        -0.98612   1.00612  -4.92359 
 C(Fragment=1)         1.00613  -0.98613  -4.92359 
 C(Fragment=1)        -0.49632   0.51632  -6.09636 
 C(Fragment=1)         0.51632  -0.49632  -6.09636 
 C(Fragment=1)        -0.98447   1.00447  -2.45332 
 C(Fragment=1)        -0.50449   0.52449  -1.21403 
 C(Fragment=1)         1.00447  -0.98447  -2.45332 
 C(Fragment=1)         0.52449  -0.50449  -1.21403 
 H(Fragment=1)        -1.75336   1.77336  -4.92326 
 H(Fragment=1)        -1.75219   1.77219  -2.45393 
 H(Fragment=1)         1.77219  -1.75219  -2.45393 
 H(Fragment=1)         1.77336  -1.75336  -4.92326 
 H(Fragment=1)         0.89056  -0.87056  -7.04253 
 H(Fragment=1)        -0.87056   0.89056  -7.04253 
 C(Fragment=1)        -0.98482   1.00482   0.01 
 C(Fragment=1)        -0.50449   0.52449   1.23403 
 C(Fragment=1)         1.00482  -0.98482   0.01 
 C(Fragment=1)         0.52449  -0.50449   1.23403 
 H(Fragment=1)        -1.75247   1.77247   0.01 
 H(Fragment=1)         1.77247  -1.75247   0.01 
 C(Fragment=1)        -0.98447   1.00447   2.47332 
 C(Fragment=1)        -0.50395   0.52395   3.68128 
 C(Fragment=1)         1.00447  -0.98447   2.47332 
 C(Fragment=1)         0.52395  -0.50395   3.68128 
 H(Fragment=1)        -1.75219   1.77219   2.47393 
 H(Fragment=1)         1.77219  -1.75219   2.47393 
 C(Fragment=1)        -0.98612   1.00612   4.94359 
 C(Fragment=1)        -0.49632   0.51632   6.11636 
 C(Fragment=1)         1.00612  -0.98612   4.94359 
 C(Fragment=1)         0.51632  -0.49632   6.11636 
 H(Fragment=1)        -1.75336   1.77336   4.94326 
 H(Fragment=1)        -0.87056   0.89056   7.06253 
 H(Fragment=1)         0.89056  -0.87056   7.06253 
 H(Fragment=1)         1.77336  -1.75336   4.94326 
 C(Fragment=2)         4.27395   4.27395  -3.66128 
 C(Fragment=2)         3.24605   3.24605  -3.66128 
 C(Fragment=2)         4.75612   4.75612  -4.92359 
 C(Fragment=2)         2.76387   2.76387  -4.92359 
 C(Fragment=2)         4.26632   4.26632  -6.09636 
 C(Fragment=2)         3.25368   3.25368  -6.09636 
 C(Fragment=2)         4.75447   4.75447  -2.45332 
 C(Fragment=2)         4.27449   4.27449  -1.21403 
 C(Fragment=2)         2.76553   2.76553  -2.45332 
 C(Fragment=2)         3.24551   3.24551  -1.21403 
 H(Fragment=2)         5.52336   5.52336  -4.92326 
 H(Fragment=2)         5.52219   5.52219  -2.45393 
 H(Fragment=2)         1.99781   1.99781  -2.45393 
 H(Fragment=2)         1.99664   1.99664  -4.92326 
 H(Fragment=2)         2.87944   2.87944  -7.04253 
 H(Fragment=2)         4.64056   4.64056  -7.04253 
 C(Fragment=2)         4.75482   4.75482   0.01 
 C(Fragment=2)         4.27449   4.27449   1.23403 
 C(Fragment=2)         2.76518   2.76518   0.01 
 C(Fragment=2)         3.24551   3.24551   1.23403 
 H(Fragment=2)         5.52247   5.52247   0.01 
 H(Fragment=2)         1.99753   1.99753   0.01 
 C(Fragment=2)         4.75447   4.75447   2.47332 
 C(Fragment=2)         4.27395   4.27395   3.68128 
 C(Fragment=2)         2.76553   2.76553   2.47332 
 C(Fragment=2)         3.24605   3.24605   3.68128 
 H(Fragment=2)         5.52219   5.52219   2.47393 
 H(Fragment=2)         1.99781   1.99781   2.47393 
 C(Fragment=2)         4.75612   4.75612   4.94359 
 C(Fragment=2)         4.26632   4.26632   6.11636 
 C(Fragment=2)         2.76388   2.76388   4.94359 
 C(Fragment=2)         3.25368   3.25368   6.11636 
 H(Fragment=2)         5.52336   5.52336   4.94326 
 H(Fragment=2)         4.64056   4.64056   7.06253 
 H(Fragment=2)         2.87944   2.87944   7.06253 
 H(Fragment=2)         1.99664   1.99664   4.94326 
 
 ITRead=  0  0  0  0  0  0  0  0  0  0  0  0  0  0  0  0  0  0  0  0
 ITRead=  0  0  0  0  0  0  0  0  0  0  0  0  0  0  0  0  0  0  0  0
 ITRead=  0  0  0  0  0  0  0  0  0  0  0  0  0  0  0  0  0  0  0  0
 ITRead=  0  0  0  0  0  0  0  0  0  0  0  0
 MicOpt= -1 -1 -1 -1 -1 -1 -1 -1 -1 -1 -1 -1 -1 -1 -1 -1 -1 -1 -1 -1
 MicOpt= -1 -1 -1 -1 -1 -1 -1 -1 -1 -1 -1 -1 -1 -1 -1 -1 -1 -1 -1 -1
 MicOpt= -1 -1 -1 -1 -1 -1 -1 -1 -1 -1 -1 -1 -1 -1 -1 -1 -1 -1 -1 -1
 MicOpt= -1 -1 -1 -1 -1 -1 -1 -1 -1 -1 -1 -1
 NAtoms=     72 NQM=       72 NQMF=       0 NMMI=      0 NMMIF=      0
                NMic=       0 NMicF=      0.
                    Isotopes and Nuclear Properties:
 (Nuclear quadrupole moments (NQMom) in fm**2, nuclear magnetic moments (NMagM)
  in nuclear magnetons)

  Atom         1           2           3           4           5           6           7           8           9          10
 IAtWgt=          12          12          12          12          12          12          12          12          12          12
 AtmWgt=  12.0000000  12.0000000  12.0000000  12.0000000  12.0000000  12.0000000  12.0000000  12.0000000  12.0000000  12.0000000
 NucSpn=           0           0           0           0           0           0           0           0           0           0
 AtZEff=   0.0000000   0.0000000   0.0000000   0.0000000   0.0000000   0.0000000   0.0000000   0.0000000   0.0000000   0.0000000
 NQMom=    0.0000000   0.0000000   0.0000000   0.0000000   0.0000000   0.0000000   0.0000000   0.0000000   0.0000000   0.0000000
 NMagM=    0.0000000   0.0000000   0.0000000   0.0000000   0.0000000   0.0000000   0.0000000   0.0000000   0.0000000   0.0000000
 AtZNuc=   6.0000000   6.0000000   6.0000000   6.0000000   6.0000000   6.0000000   6.0000000   6.0000000   6.0000000   6.0000000

  Atom        11          12          13          14          15          16          17          18          19          20
 IAtWgt=           1           1           1           1           1           1          12          12          12          12
 AtmWgt=   1.0078250   1.0078250   1.0078250   1.0078250   1.0078250   1.0078250  12.0000000  12.0000000  12.0000000  12.0000000
 NucSpn=           1           1           1           1           1           1           0           0           0           0
 AtZEff=   0.0000000   0.0000000   0.0000000   0.0000000   0.0000000   0.0000000   0.0000000   0.0000000   0.0000000   0.0000000
 NQMom=    0.0000000   0.0000000   0.0000000   0.0000000   0.0000000   0.0000000   0.0000000   0.0000000   0.0000000   0.0000000
 NMagM=    2.7928460   2.7928460   2.7928460   2.7928460   2.7928460   2.7928460   0.0000000   0.0000000   0.0000000   0.0000000
 AtZNuc=   1.0000000   1.0000000   1.0000000   1.0000000   1.0000000   1.0000000   6.0000000   6.0000000   6.0000000   6.0000000

  Atom        21          22          23          24          25          26          27          28          29          30
 IAtWgt=           1           1          12          12          12          12           1           1          12          12
 AtmWgt=   1.0078250   1.0078250  12.0000000  12.0000000  12.0000000  12.0000000   1.0078250   1.0078250  12.0000000  12.0000000
 NucSpn=           1           1           0           0           0           0           1           1           0           0
 AtZEff=   0.0000000   0.0000000   0.0000000   0.0000000   0.0000000   0.0000000   0.0000000   0.0000000   0.0000000   0.0000000
 NQMom=    0.0000000   0.0000000   0.0000000   0.0000000   0.0000000   0.0000000   0.0000000   0.0000000   0.0000000   0.0000000
 NMagM=    2.7928460   2.7928460   0.0000000   0.0000000   0.0000000   0.0000000   2.7928460   2.7928460   0.0000000   0.0000000
 AtZNuc=   1.0000000   1.0000000   6.0000000   6.0000000   6.0000000   6.0000000   1.0000000   1.0000000   6.0000000   6.0000000

  Atom        31          32          33          34          35          36          37          38          39          40
 IAtWgt=          12          12           1           1           1           1          12          12          12          12
 AtmWgt=  12.0000000  12.0000000   1.0078250   1.0078250   1.0078250   1.0078250  12.0000000  12.0000000  12.0000000  12.0000000
 NucSpn=           0           0           1           1           1           1           0           0           0           0
 AtZEff=   0.0000000   0.0000000   0.0000000   0.0000000   0.0000000   0.0000000   0.0000000   0.0000000   0.0000000   0.0000000
 NQMom=    0.0000000   0.0000000   0.0000000   0.0000000   0.0000000   0.0000000   0.0000000   0.0000000   0.0000000   0.0000000
 NMagM=    0.0000000   0.0000000   2.7928460   2.7928460   2.7928460   2.7928460   0.0000000   0.0000000   0.0000000   0.0000000
 AtZNuc=   6.0000000   6.0000000   1.0000000   1.0000000   1.0000000   1.0000000   6.0000000   6.0000000   6.0000000   6.0000000

  Atom        41          42          43          44          45          46          47          48          49          50
 IAtWgt=          12          12          12          12          12          12           1           1           1           1
 AtmWgt=  12.0000000  12.0000000  12.0000000  12.0000000  12.0000000  12.0000000   1.0078250   1.0078250   1.0078250   1.0078250
 NucSpn=           0           0           0           0           0           0           1           1           1           1
 AtZEff=   0.0000000   0.0000000   0.0000000   0.0000000   0.0000000   0.0000000   0.0000000   0.0000000   0.0000000   0.0000000
 NQMom=    0.0000000   0.0000000   0.0000000   0.0000000   0.0000000   0.0000000   0.0000000   0.0000000   0.0000000   0.0000000
 NMagM=    0.0000000   0.0000000   0.0000000   0.0000000   0.0000000   0.0000000   2.7928460   2.7928460   2.7928460   2.7928460
 AtZNuc=   6.0000000   6.0000000   6.0000000   6.0000000   6.0000000   6.0000000   1.0000000   1.0000000   1.0000000   1.0000000

  Atom        51          52          53          54          55          56          57          58          59          60
 IAtWgt=           1           1          12          12          12          12           1           1          12          12
 AtmWgt=   1.0078250   1.0078250  12.0000000  12.0000000  12.0000000  12.0000000   1.0078250   1.0078250  12.0000000  12.0000000
 NucSpn=           1           1           0           0           0           0           1           1           0           0
 AtZEff=   0.0000000   0.0000000   0.0000000   0.0000000   0.0000000   0.0000000   0.0000000   0.0000000   0.0000000   0.0000000
 NQMom=    0.0000000   0.0000000   0.0000000   0.0000000   0.0000000   0.0000000   0.0000000   0.0000000   0.0000000   0.0000000
 NMagM=    2.7928460   2.7928460   0.0000000   0.0000000   0.0000000   0.0000000   2.7928460   2.7928460   0.0000000   0.0000000
 AtZNuc=   1.0000000   1.0000000   6.0000000   6.0000000   6.0000000   6.0000000   1.0000000   1.0000000   6.0000000   6.0000000

  Atom        61          62          63          64          65          66          67          68          69          70
 IAtWgt=          12          12           1           1          12          12          12          12           1           1
 AtmWgt=  12.0000000  12.0000000   1.0078250   1.0078250  12.0000000  12.0000000  12.0000000  12.0000000   1.0078250   1.0078250
 NucSpn=           0           0           1           1           0           0           0           0           1           1
 AtZEff=   0.0000000   0.0000000   0.0000000   0.0000000   0.0000000   0.0000000   0.0000000   0.0000000   0.0000000   0.0000000
 NQMom=    0.0000000   0.0000000   0.0000000   0.0000000   0.0000000   0.0000000   0.0000000   0.0000000   0.0000000   0.0000000
 NMagM=    0.0000000   0.0000000   2.7928460   2.7928460   0.0000000   0.0000000   0.0000000   0.0000000   2.7928460   2.7928460
 AtZNuc=   6.0000000   6.0000000   1.0000000   1.0000000   6.0000000   6.0000000   6.0000000   6.0000000   1.0000000   1.0000000

  Atom        71          72
 IAtWgt=           1           1
 AtmWgt=   1.0078250   1.0078250
 NucSpn=           1           1
 AtZEff=   0.0000000   0.0000000
 NQMom=    0.0000000   0.0000000
 NMagM=    2.7928460   2.7928460
 AtZNuc=   1.0000000   1.0000000
 Leave Link  101 at Wed Sep 27 16:57:08 2023, MaxMem=  3221225472 cpu:               1.1 elap:               0.1
 (Enter /home/center/opt/aarch64/apps/gaussian16/c01/g16/l202.exe)
 Stoichiometry    C44H28
 Framework group  CS[SG(C4H4),X(C40H24)]
 Deg. of freedom   109
 Full point group                 CS      NOp   2
 Largest Abelian subgroup         CS      NOp   2
 Largest concise Abelian subgroup CS      NOp   2
                         Standard orientation:                         
 ---------------------------------------------------------------------
 Center     Atomic      Atomic             Coordinates (Angstroms)
 Number     Number       Type             X           Y           Z
 ---------------------------------------------------------------------
      1          6           0        0.726832   -2.651650    3.671276
      2          6           0       -0.726832   -2.651650    3.671276
      3          6           0        1.408733   -2.651650    4.933593
      4          6           0       -1.408734   -2.651650    4.933593
      5          6           0        0.716047   -2.651650    6.106357
      6          6           0       -0.716047   -2.651650    6.106357
      7          6           0        1.406391   -2.651650    2.463318
      8          6           0        0.727597   -2.651650    1.224029
      9          6           0       -1.406391   -2.651650    2.463317
     10          6           0       -0.727597   -2.651650    1.224029
     11          1           0        2.493762   -2.651650    4.933260
     12          1           0        2.492108   -2.651650    2.463929
     13          1           0       -2.492107   -2.651650    2.463929
     14          1           0       -2.493762   -2.651650    4.933260
     15          1           0       -1.245295   -2.651650    7.052528
     16          1           0        1.245295   -2.651650    7.052528
     17          6           0        1.406886   -2.651650    0.000000
     18          6           0        0.727597   -2.651650   -1.224029
     19          6           0       -1.406886   -2.651650    0.000000
     20          6           0       -0.727597   -2.651650   -1.224029
     21          1           0        2.492509   -2.651650    0.000000
     22          1           0       -2.492507   -2.651650    0.000000
     23          6           0        1.406391   -2.651650   -2.463318
     24          6           0        0.726832   -2.651650   -3.671276
     25          6           0       -1.406391   -2.651650   -2.463317
     26          6           0       -0.726832   -2.651650   -3.671276
     27          1           0        2.492108   -2.651650   -2.463929
     28          1           0       -2.492107   -2.651650   -2.463929
     29          6           0        1.408733   -2.651650   -4.933593
     30          6           0        0.716047   -2.651650   -6.106357
     31          6           0       -1.408734   -2.651650   -4.933593
     32          6           0       -0.716047   -2.651650   -6.106357
     33          1           0        2.493762   -2.651650   -4.933260
     34          1           0        1.245295   -2.651650   -7.052528
     35          1           0       -1.245295   -2.651650   -7.052528
     36          1           0       -2.493762   -2.651650   -4.933260
     37          6           0        0.000000    3.378482    3.671276
     38          6           0        0.000000    1.924818    3.671276
     39          6           0        0.000000    4.060384    4.933593
     40          6           0        0.000000    1.242917    4.933593
     41          6           0        0.000000    3.367697    6.106357
     42          6           0        0.000000    1.935603    6.106357
     43          6           0        0.000000    4.058041    2.463318
     44          6           0        0.000000    3.379247    1.224029
     45          6           0        0.000000    1.245260    2.463317
     46          6           0        0.000000    1.924054    1.224029
     47          1           0        0.000000    5.145412    4.933260
     48          1           0        0.000000    5.143759    2.463929
     49          1           0        0.000000    0.159543    2.463929
     50          1           0        0.000000    0.157889    4.933260
     51          1           0        0.000000    1.406355    7.052528
     52          1           0        0.000000    3.896945    7.052528
     53          6           0        0.000000    4.058536    0.000000
     54          6           0        0.000000    3.379247   -1.224029
     55          6           0        0.000000    1.244765    0.000000
     56          6           0        0.000000    1.924054   -1.224029
     57          1           0        0.000000    5.144159    0.000000
     58          1           0        0.000000    0.159143    0.000000
     59          6           0        0.000000    4.058041   -2.463318
     60          6           0        0.000000    3.378482   -3.671276
     61          6           0        0.000000    1.245260   -2.463317
     62          6           0        0.000000    1.924818   -3.671276
     63          1           0        0.000000    5.143759   -2.463929
     64          1           0        0.000000    0.159543   -2.463929
     65          6           0        0.000000    4.060384   -4.933593
     66          6           0        0.000000    3.367697   -6.106357
     67          6           0        0.000000    1.242917   -4.933593
     68          6           0        0.000000    1.935603   -6.106357
     69          1           0        0.000000    5.145412   -4.933260
     70          1           0        0.000000    3.896945   -7.052528
     71          1           0        0.000000    1.406355   -7.052528
     72          1           0        0.000000    0.157889   -4.933260
 ---------------------------------------------------------------------
 Rotational constants (GHZ):           0.1081062           0.0563744           0.0392509
 Leave Link  202 at Wed Sep 27 16:57:10 2023, MaxMem=  3221225472 cpu:               0.6 elap:               0.0
 (Enter /home/center/opt/aarch64/apps/gaussian16/c01/g16/l122.exe)
 Counterpoise: doing full-system calculation.
 Leave Link  122 at Wed Sep 27 16:57:12 2023, MaxMem=  3221225472 cpu:               0.2 elap:               0.0
 (Enter /home/center/opt/aarch64/apps/gaussian16/c01/g16/l301.exe)
 Standard basis: 6-311G(d,p) (5D, 7F)
 Ernie: Thresh=  0.10000D-02 Tol=  0.10000D-05 Strict=F.
 There are   528 symmetry adapted cartesian basis functions of A'  symmetry.
 There are   476 symmetry adapted cartesian basis functions of A"  symmetry.
 There are   504 symmetry adapted basis functions of A'  symmetry.
 There are   456 symmetry adapted basis functions of A"  symmetry.
   960 basis functions,  1632 primitive gaussians,  1004 cartesian basis functions
   146 alpha electrons      146 beta electrons
       nuclear repulsion energy      4629.8252171389 Hartrees.
 IExCor=  402 DFT=T Ex+Corr=B3LYP ExCW=0 ScaHFX=  0.200000
 ScaDFX=  0.800000  0.720000  1.000000  0.810000 ScalE2=  1.000000  1.000000
 IRadAn=      5 IRanWt=     -1 IRanGd=            0 ICorTp=0 IEmpDi=131
 NAtoms=   72 NActive=   72 NUniq=   40 SFac= 3.24D+00 NAtFMM=   60 NAOKFM=T Big=F
 Integral buffers will be    131072 words long.
 Raffenetti 2 integral format.
 Two-electron integral symmetry is turned on.
 R6Disp:  Grimme-D3 Dispersion energy=       -0.0809601752 Hartrees.
 Nuclear repulsion after empirical dispersion term =     4629.7442569637 Hartrees.
 Leave Link  301 at Wed Sep 27 16:57:15 2023, MaxMem=  3221225472 cpu:               1.9 elap:               0.1
 (Enter /home/center/opt/aarch64/apps/gaussian16/c01/g16/l302.exe)
 NPDir=0 NMtPBC=     1 NCelOv=     1 NCel=       1 NClECP=     1 NCelD=      1
         NCelK=      1 NCelE2=     1 NClLst=     1 CellRange=     0.0.
 One-electron integrals computed using PRISM.
 One-electron integral symmetry used in STVInt
 NBasis=   960 RedAO= T EigKep=  3.83D-05  NBF=   504   456
 NBsUse=   960 1.00D-06 EigRej= -1.00D+00 NBFU=   504   456
 Precomputing XC quadrature grid using
 IXCGrd= 4 IRadAn=           5 IRanWt=          -1 IRanGd=           0 AccXCQ= 0.00D+00.
 Generated NRdTot=       0 NPtTot=           0 NUsed=           0 NTot=          32
 NSgBfM=   991   987   991   991   991 MxSgAt=    72 MxSgA2=    72.
 Leave Link  302 at Wed Sep 27 16:57:19 2023, MaxMem=  3221225472 cpu:              64.2 elap:               2.0
 (Enter /home/center/opt/aarch64/apps/gaussian16/c01/g16/l303.exe)
 DipDrv:  MaxL=1.
 Leave Link  303 at Wed Sep 27 16:57:22 2023, MaxMem=  3221225472 cpu:              13.7 elap:               0.4
 (Enter /home/center/opt/aarch64/apps/gaussian16/c01/g16/l401.exe)
 ExpMin= 1.03D-01 ExpMax= 4.56D+03 ExpMxC= 6.82D+02 IAcc=3 IRadAn=         5 AccDes= 0.00D+00
 Harris functional with IExCor=  402 and IRadAn=       5 diagonalized for initial guess.
 HarFok:  IExCor=  402 AccDes= 0.00D+00 IRadAn=         5 IDoV= 1 UseB2=F ITyADJ=14
 ICtDFT=  3500011 ScaDFX=  1.000000  1.000000  1.000000  1.000000
 FoFCou: FMM=F IPFlag=           0 FMFlag=      100000 FMFlg1=        2000
         NFxFlg=           0 DoJE=T BraDBF=F KetDBF=T FulRan=T
         wScrn=  0.000000 ICntrl=       500 IOpCl=  0 I1Cent=   200000004 NGrid=           0
         NMat0=    1 NMatS0=      1 NMatT0=    0 NMatD0=    1 NMtDS0=    0 NMtDT0=    0
 Petite list used in FoFCou.
 Harris En= -1694.13996237318    
 JPrj=0 DoOrth=F DoCkMO=F.
 Initial guess orbital symmetries:
       Occupied  (A") (A') (A") (A') (A') (A") (A') (A") (A") (A')
                 (A") (A') (A") (A') (A") (A') (A') (A") (A") (A')
                 (A") (A') (A") (A') (A') (A') (A') (A') (A") (A')
                 (A") (A') (A") (A') (A") (A') (A") (A') (A") (A')
                 (A') (A") (A') (A") (A') (A') (A") (A") (A') (A')
                 (A") (A") (A') (A') (A') (A') (A") (A") (A') (A')
                 (A") (A") (A") (A") (A') (A') (A') (A') (A") (A")
                 (A") (A") (A') (A') (A") (A") (A') (A') (A') (A')
                 (A') (A') (A") (A") (A") (A") (A") (A') (A") (A')
                 (A') (A') (A") (A") (A') (A') (A') (A') (A") (A")
                 (A') (A') (A") (A") (A") (A") (A') (A') (A') (A')
                 (A") (A") (A') (A') (A") (A") (A') (A') (A") (A")
                 (A") (A") (A') (A') (A') (A') (A") (A") (A') (A')
                 (A") (A") (A') (A') (A") (A") (A') (A') (A') (A')
                 (A") (A") (A") (A") (A') (A')
       Virtual   (A') (A') (A") (A") (A") (A") (A') (A') (A') (A')
                 (A") (A") (A') (A') (A") (A") (A') (A") (A') (A')
                 (A') (A') (A") (A') (A') (A") (A") (A') (A") (A")
                 (A') (A') (A") (A") (A') (A') (A") (A") (A") (A')
                 (A") (A') (A') (A') (A') (A") (A") (A') (A') (A')
                 (A') (A') (A") (A") (A') (A') (A") (A") (A') (A')
                 (A") (A") (A") (A") (A') (A') (A") (A') (A") (A")
                 (A') (A") (A') (A') (A") (A') (A") (A") (A') (A")
                 (A') (A') (A') (A') (A") (A') (A') (A") (A') (A")
                 (A") (A') (A") (A") (A') (A') (A") (A") (A") (A')
                 (A') (A') (A") (A") (A') (A") (A') (A") (A') (A')
                 (A') (A') (A") (A') (A') (A") (A") (A') (A") (A')
                 (A") (A') (A') (A") (A") (A') (A') (A") (A') (A")
                 (A") (A') (A") (A') (A") (A") (A") (A') (A') (A")
                 (A') (A') (A') (A") (A") (A") (A') (A') (A') (A')
                 (A') (A') (A") (A") (A') (A") (A") (A') (A") (A')
                 (A") (A") (A') (A') (A') (A") (A") (A") (A') (A')
                 (A') (A") (A') (A") (A') (A") (A') (A') (A") (A")
                 (A') (A') (A") (A") (A') (A") (A') (A') (A') (A')
                 (A") (A") (A') (A") (A') (A') (A") (A') (A") (A")
                 (A') (A") (A") (A') (A') (A') (A") (A") (A') (A')
                 (A') (A") (A") (A") (A') (A') (A") (A") (A") (A')
                 (A') (A") (A") (A") (A') (A') (A") (A') (A') (A')
                 (A') (A") (A') (A') (A") (A") (A") (A') (A') (A")
                 (A") (A') (A") (A') (A') (A") (A') (A') (A") (A")
                 (A') (A") (A") (A") (A') (A') (A") (A') (A') (A')
                 (A") (A') (A") (A") (A") (A') (A') (A") (A") (A')
                 (A") (A") (A') (A') (A") (A') (A") (A') (A") (A')
                 (A') (A') (A") (A") (A') (A") (A') (A") (A') (A")
                 (A') (A') (A") (A') (A") (A") (A') (A") (A") (A")
                 (A") (A') (A') (A') (A') (A') (A') (A') (A") (A")
                 (A") (A') (A") (A") (A") (A") (A') (A') (A') (A')
                 (A") (A') (A") (A') (A') (A") (A') (A") (A') (A")
                 (A") (A") (A') (A') (A") (A') (A") (A") (A') (A')
                 (A") (A') (A') (A") (A') (A") (A') (A") (A") (A')
                 (A') (A") (A') (A') (A") (A') (A') (A") (A") (A')
                 (A') (A') (A') (A') (A") (A") (A") (A") (A") (A")
                 (A') (A") (A") (A") (A') (A") (A') (A') (A') (A')
                 (A") (A") (A') (A') (A") (A') (A') (A') (A') (A")
                 (A") (A') (A') (A') (A") (A') (A") (A") (A") (A')
                 (A") (A') (A") (A') (A") (A') (A") (A') (A") (A')
                 (A') (A") (A') (A') (A') (A') (A") (A") (A') (A")
                 (A') (A") (A') (A') (A") (A') (A") (A') (A") (A')
                 (A") (A") (A") (A') (A') (A") (A') (A") (A") (A")
                 (A") (A') (A") (A') (A') (A') (A") (A") (A') (A")
                 (A') (A') (A') (A') (A") (A") (A") (A') (A") (A')
                 (A") (A') (A") (A') (A') (A") (A") (A') (A") (A')
                 (A") (A") (A') (A') (A') (A") (A") (A') (A") (A')
                 (A") (A') (A') (A') (A") (A') (A") (A") (A") (A')
                 (A") (A") (A') (A") (A") (A") (A") (A') (A') (A')
                 (A") (A") (A') (A') (A") (A') (A') (A') (A") (A")
                 (A') (A') (A') (A') (A") (A") (A") (A') (A") (A')
                 (A") (A') (A") (A") (A') (A") (A') (A') (A') (A")
                 (A') (A') (A") (A') (A") (A") (A") (A') (A") (A')
                 (A") (A") (A') (A') (A') (A") (A") (A') (A") (A")
                 (A") (A') (A') (A") (A") (A') (A') (A") (A') (A')
                 (A") (A') (A') (A") (A") (A') (A') (A') (A") (A")
                 (A") (A") (A') (A') (A") (A') (A") (A') (A') (A")
                 (A") (A') (A') (A') (A") (A') (A') (A') (A") (A")
                 (A') (A') (A') (A") (A") (A") (A") (A') (A') (A')
                 (A") (A') (A") (A') (A") (A') (A") (A") (A') (A')
                 (A') (A") (A') (A") (A') (A') (A") (A') (A") (A")
                 (A") (A") (A') (A') (A') (A") (A") (A") (A') (A')
                 (A') (A") (A') (A") (A') (A') (A') (A") (A') (A")
                 (A') (A") (A') (A") (A") (A') (A") (A") (A") (A')
                 (A') (A') (A") (A') (A') (A') (A') (A") (A") (A')
                 (A') (A") (A") (A') (A") (A") (A') (A') (A') (A")
                 (A') (A") (A") (A') (A") (A') (A") (A") (A') (A')
                 (A") (A') (A') (A") (A') (A") (A') (A") (A") (A")
                 (A') (A') (A") (A') (A') (A') (A") (A") (A") (A')
                 (A') (A") (A") (A') (A') (A') (A") (A") (A') (A")
                 (A") (A") (A") (A') (A') (A') (A') (A') (A") (A")
                 (A') (A') (A") (A") (A') (A') (A") (A') (A') (A")
                 (A') (A") (A") (A') (A") (A') (A") (A') (A') (A")
                 (A') (A") (A') (A") (A') (A") (A') (A') (A') (A')
                 (A") (A') (A") (A') (A") (A") (A') (A') (A") (A")
                 (A") (A') (A") (A') (A") (A") (A') (A") (A') (A")
                 (A') (A') (A") (A") (A') (A') (A') (A') (A") (A")
                 (A") (A") (A') (A') (A") (A") (A') (A') (A') (A')
                 (A") (A") (A") (A") (A') (A') (A') (A') (A") (A")
                 (A') (A') (A") (A") (A') (A') (A") (A') (A") (A')
                 (A') (A") (A') (A")
 The electronic state of the initial guess is 1-A'.
 Leave Link  401 at Wed Sep 27 16:57:27 2023, MaxMem=  3221225472 cpu:             104.7 elap:               2.6
 (Enter /home/center/opt/aarch64/apps/gaussian16/c01/g16/l502.exe)
 Integral symmetry usage will be decided dynamically.
 Closed shell SCF:
 Using DIIS extrapolation, IDIIS=  1040.
 NGot=  3221225472 LenX=  3219153746 LenY=  3218144726
 Requested convergence on RMS density matrix=1.00D-08 within 128 cycles.
 Requested convergence on MAX density matrix=1.00D-06.
 Requested convergence on             energy=1.00D-06.
 No special actions if energy rises.
 Fock matrices will be formed incrementally for  20 cycles.
 Integral accuracy reduced to 1.0D-05 until final iterations.

 Cycle   1  Pass 0  IDiag  1:
 FoFJK:  IHMeth= 1 ICntrl=       0 DoSepK=F KAlg= 0 I1Cent=           0 FoldK=F
 IRaf= 550000000 NMat=       1 IRICut=       1 DoRegI=T DoRafI=F ISym2E= 1 IDoP0=0 IntGTp=1.
 FoFCou: FMM=F IPFlag=           0 FMFlag=      100000 FMFlg1=        2000
         NFxFlg=           0 DoJE=F BraDBF=F KetDBF=F FulRan=T
         wScrn=  0.000000 ICntrl=         0 IOpCl=  0 I1Cent=           0 NGrid=           0
         NMat0=    1 NMatS0=      1 NMatT0=    0 NMatD0=    1 NMtDS0=    0 NMtDT0=    0
 Petite list used in FoFCou.
 E= -1693.17441705317    
 DIIS: error= 4.74D-02 at cycle   1 NSaved=   1.
 NSaved= 1 IEnMin= 1 EnMin= -1693.17441705317     IErMin= 1 ErrMin= 4.74D-02
 ErrMax= 4.74D-02  0.00D+00 EMaxC= 1.00D-01 BMatC= 8.99D-01 BMatP= 8.99D-01
 IDIUse=3 WtCom= 5.26D-01 WtEn= 4.74D-01
 Coeff-Com:  0.100D+01
 Coeff-En:   0.100D+01
 Coeff:      0.100D+01
 Gap=     0.065 Goal=   None    Shift=    0.000
 GapD=    0.065 DampG=0.500 DampE=0.500 DampFc=0.2500 IDamp=-1.
 Damping current iteration by 2.50D-01
 RMSDP=1.71D-03 MaxDP=8.40D-02              OVMax= 1.55D-01

 Cycle   2  Pass 0  IDiag  1:
 RMSU=  4.12D-04    CP:  9.82D-01
 E= -1693.48350077729     Delta-E=       -0.309083724128 Rises=F Damp=T
 DIIS: error= 2.78D-02 at cycle   2 NSaved=   2.
 NSaved= 2 IEnMin= 2 EnMin= -1693.48350077729     IErMin= 2 ErrMin= 2.78D-02
 ErrMax= 2.78D-02  0.00D+00 EMaxC= 1.00D-01 BMatC= 2.99D-01 BMatP= 8.99D-01
 IDIUse=3 WtCom= 7.22D-01 WtEn= 2.78D-01
 Coeff-Com: -0.121D+01 0.221D+01
 Coeff-En:   0.000D+00 0.100D+01
 Coeff:     -0.877D+00 0.188D+01
 Gap=     0.064 Goal=   None    Shift=    0.000
 RMSDP=6.80D-04 MaxDP=3.38D-02 DE=-3.09D-01 OVMax= 9.71D-02

 Cycle   3  Pass 0  IDiag  1:
 RMSU=  4.29D-04    CP:  9.57D-01  2.22D+00
 E= -1694.04915865682     Delta-E=       -0.565657879526 Rises=F Damp=F
 DIIS: error= 4.75D-03 at cycle   3 NSaved=   3.
 NSaved= 3 IEnMin= 3 EnMin= -1694.04915865682     IErMin= 3 ErrMin= 4.75D-03
 ErrMax= 4.75D-03  0.00D+00 EMaxC= 1.00D-01 BMatC= 1.16D-02 BMatP= 2.99D-01
 IDIUse=3 WtCom= 9.52D-01 WtEn= 4.75D-02
 Coeff-Com: -0.220D+00 0.472D+00 0.748D+00
 Coeff-En:   0.000D+00 0.000D+00 0.100D+01
 Coeff:     -0.210D+00 0.450D+00 0.760D+00
 Gap=     0.068 Goal=   None    Shift=    0.000
 RMSDP=2.35D-04 MaxDP=1.48D-02 DE=-5.66D-01 OVMax= 1.12D-01

 Cycle   4  Pass 0  IDiag  1:
 RMSU=  1.99D-04    CP:  9.58D-01  2.09D+00  7.35D-01
 E= -1694.04413309509     Delta-E=        0.005025561727 Rises=F Damp=F
 DIIS: error= 7.05D-03 at cycle   4 NSaved=   4.
 NSaved= 4 IEnMin= 3 EnMin= -1694.04915865682     IErMin= 3 ErrMin= 4.75D-03
 ErrMax= 7.05D-03  0.00D+00 EMaxC= 1.00D-01 BMatC= 1.42D-02 BMatP= 1.16D-02
 IDIUse=3 WtCom= 1.06D-01 WtEn= 8.94D-01
 Coeff-Com: -0.209D-01 0.851D-01 0.539D+00 0.396D+00
 Coeff-En:   0.000D+00 0.000D+00 0.572D+00 0.428D+00
 Coeff:     -0.222D-02 0.906D-02 0.569D+00 0.424D+00
 Gap=     0.064 Goal=   None    Shift=    0.000
 RMSDP=1.50D-04 MaxDP=1.07D-02 DE= 5.03D-03 OVMax= 9.68D-02

 Cycle   5  Pass 0  IDiag  1:
 RMSU=  7.39D-05    CP:  9.58D-01  2.08D+00  8.13D-01  3.67D-01
 E= -1694.05999828218     Delta-E=       -0.015865187091 Rises=F Damp=F
 DIIS: error= 2.53D-03 at cycle   5 NSaved=   5.
 NSaved= 5 IEnMin= 5 EnMin= -1694.05999828218     IErMin= 5 ErrMin= 2.53D-03
 ErrMax= 2.53D-03  0.00D+00 EMaxC= 1.00D-01 BMatC= 1.23D-03 BMatP= 1.16D-02
 IDIUse=3 WtCom= 9.75D-01 WtEn= 2.53D-02
 Coeff-Com: -0.166D-01 0.353D-01 0.246D+00 0.245D+00 0.490D+00
 Coeff-En:   0.000D+00 0.000D+00 0.000D+00 0.495D-01 0.951D+00
 Coeff:     -0.162D-01 0.344D-01 0.240D+00 0.241D+00 0.501D+00
 Gap=     0.065 Goal=   None    Shift=    0.000
 RMSDP=4.99D-05 MaxDP=3.78D-03 DE=-1.59D-02 OVMax= 3.58D-02

 Cycle   6  Pass 0  IDiag  1:
 RMSU=  2.72D-05    CP:  9.58D-01  2.11D+00  8.14D-01  4.76D-01  5.53D-01
 E= -1694.06108899793     Delta-E=       -0.001090715750 Rises=F Damp=F
 DIIS: error= 1.27D-03 at cycle   6 NSaved=   6.
 NSaved= 6 IEnMin= 6 EnMin= -1694.06108899793     IErMin= 6 ErrMin= 1.27D-03
 ErrMax= 1.27D-03  0.00D+00 EMaxC= 1.00D-01 BMatC= 2.87D-04 BMatP= 1.23D-03
 IDIUse=3 WtCom= 9.87D-01 WtEn= 1.27D-02
 Coeff-Com: -0.914D-02 0.133D-01 0.103D+00 0.122D+00 0.372D+00 0.399D+00
 Coeff-En:   0.000D+00 0.000D+00 0.000D+00 0.000D+00 0.204D+00 0.796D+00
 Coeff:     -0.902D-02 0.132D-01 0.101D+00 0.120D+00 0.370D+00 0.405D+00
 Gap=     0.065 Goal=   None    Shift=    0.000
 RMSDP=2.20D-05 MaxDP=1.72D-03 DE=-1.09D-03 OVMax= 1.42D-02

 Cycle   7  Pass 0  IDiag  1:
 RMSU=  7.84D-06    CP:  9.58D-01  2.11D+00  8.18D-01  4.59D-01  6.36D-01
                    CP:  2.92D-01
 E= -1694.06141791897     Delta-E=       -0.000328921034 Rises=F Damp=F
 DIIS: error= 3.73D-04 at cycle   7 NSaved=   7.
 NSaved= 7 IEnMin= 7 EnMin= -1694.06141791897     IErMin= 7 ErrMin= 3.73D-04
 ErrMax= 3.73D-04  0.00D+00 EMaxC= 1.00D-01 BMatC= 2.10D-05 BMatP= 2.87D-04
 IDIUse=3 WtCom= 9.96D-01 WtEn= 3.73D-03
 Coeff-Com: -0.405D-02 0.511D-02 0.525D-01 0.641D-01 0.214D+00 0.278D+00
 Coeff-Com:  0.391D+00
 Coeff-En:   0.000D+00 0.000D+00 0.000D+00 0.000D+00 0.000D+00 0.361D-01
 Coeff-En:   0.964D+00
 Coeff:     -0.404D-02 0.509D-02 0.523D-01 0.638D-01 0.213D+00 0.277D+00
 Coeff:      0.393D+00
 Gap=     0.065 Goal=   None    Shift=    0.000
 RMSDP=5.55D-06 MaxDP=3.14D-04 DE=-3.29D-04 OVMax= 2.32D-03

 Initial convergence to 1.0D-05 achieved.  Increase integral accuracy.
 Cycle   8  Pass 1  IDiag  1:
 E= -1694.06109083519     Delta-E=        0.000327083774 Rises=F Damp=F
 DIIS: error= 6.67D-04 at cycle   1 NSaved=   1.
 NSaved= 1 IEnMin= 1 EnMin= -1694.06109083519     IErMin= 1 ErrMin= 6.67D-04
 ErrMax= 6.67D-04  0.00D+00 EMaxC= 1.00D-01 BMatC= 4.12D-05 BMatP= 4.12D-05
 IDIUse=3 WtCom= 9.93D-01 WtEn= 6.67D-03
 Coeff-Com:  0.100D+01
 Coeff-En:   0.100D+01
 Coeff:      0.100D+01
 Gap=     0.065 Goal=   None    Shift=    0.000
 RMSDP=5.55D-06 MaxDP=3.14D-04 DE= 3.27D-04 OVMax= 1.26D-03

 Cycle   9  Pass 1  IDiag  1:
 RMSU=  2.33D-04    CP:  1.00D+00
 E= -1694.06112914917     Delta-E=       -0.000038313979 Rises=F Damp=F
 DIIS: error= 8.60D-05 at cycle   2 NSaved=   2.
 NSaved= 2 IEnMin= 2 EnMin= -1694.06112914917     IErMin= 2 ErrMin= 8.60D-05
 ErrMax= 8.60D-05  0.00D+00 EMaxC= 1.00D-01 BMatC= 1.83D-06 BMatP= 4.12D-05
 IDIUse=1 WtCom= 1.00D+00 WtEn= 0.00D+00
 Coeff-Com:  0.550D-01 0.945D+00
 Coeff:      0.550D-01 0.945D+00
 Gap=     0.065 Goal=   None    Shift=    0.000
 RMSDP=4.90D-06 MaxDP=2.88D-04 DE=-3.83D-05 OVMax= 2.07D-03

 Cycle  10  Pass 1  IDiag  1:
 RMSU=  4.22D-06    CP:  1.00D+00  1.01D+00
 E= -1694.06112236403     Delta-E=        0.000006785144 Rises=F Damp=F
 DIIS: error= 1.78D-04 at cycle   3 NSaved=   3.
 NSaved= 3 IEnMin= 2 EnMin= -1694.06112914917     IErMin= 2 ErrMin= 8.60D-05
 ErrMax= 1.78D-04  0.00D+00 EMaxC= 1.00D-01 BMatC= 7.42D-06 BMatP= 1.83D-06
 IDIUse=3 WtCom= 4.28D-01 WtEn= 5.72D-01
 Coeff-Com: -0.269D-02 0.673D+00 0.330D+00
 Coeff-En:   0.000D+00 0.758D+00 0.242D+00
 Coeff:     -0.115D-02 0.722D+00 0.280D+00
 Gap=     0.065 Goal=   None    Shift=    0.000
 RMSDP=2.70D-06 MaxDP=1.94D-04 DE= 6.79D-06 OVMax= 1.61D-03

 Cycle  11  Pass 1  IDiag  1:
 RMSU=  8.74D-07    CP:  1.00D+00  1.01D+00  3.95D-01
 E= -1694.06113088744     Delta-E=       -0.000008523411 Rises=F Damp=F
 DIIS: error= 2.84D-05 at cycle   4 NSaved=   4.
 NSaved= 4 IEnMin= 4 EnMin= -1694.06113088744     IErMin= 4 ErrMin= 2.84D-05
 ErrMax= 2.84D-05  0.00D+00 EMaxC= 1.00D-01 BMatC= 2.63D-07 BMatP= 1.83D-06
 IDIUse=1 WtCom= 1.00D+00 WtEn= 0.00D+00
 Coeff-Com: -0.386D-02 0.447D+00 0.176D+00 0.380D+00
 Coeff:     -0.386D-02 0.447D+00 0.176D+00 0.380D+00
 Gap=     0.065 Goal=   None    Shift=    0.000
 RMSDP=5.03D-07 MaxDP=2.67D-05 DE=-8.52D-06 OVMax= 1.27D-04

 Cycle  12  Pass 1  IDiag  1:
 RMSU=  3.00D-07    CP:  1.00D+00  1.01D+00  3.39D-01  6.29D-01
 E= -1694.06113114251     Delta-E=       -0.000000255071 Rises=F Damp=F
 DIIS: error= 5.36D-06 at cycle   5 NSaved=   5.
 NSaved= 5 IEnMin= 5 EnMin= -1694.06113114251     IErMin= 5 ErrMin= 5.36D-06
 ErrMax= 5.36D-06  0.00D+00 EMaxC= 1.00D-01 BMatC= 3.71D-09 BMatP= 2.63D-07
 IDIUse=1 WtCom= 1.00D+00 WtEn= 0.00D+00
 Coeff-Com: -0.228D-02 0.255D+00 0.100D+00 0.229D+00 0.418D+00
 Coeff:     -0.228D-02 0.255D+00 0.100D+00 0.229D+00 0.418D+00
 Gap=     0.065 Goal=   None    Shift=    0.000
 RMSDP=8.90D-08 MaxDP=4.88D-06 DE=-2.55D-07 OVMax= 4.39D-05

 Cycle  13  Pass 1  IDiag  1:
 RMSU=  7.92D-08    CP:  1.00D+00  1.01D+00  3.42D-01  6.41D-01  8.78D-01
 E= -1694.06113114670     Delta-E=       -0.000000004187 Rises=F Damp=F
 DIIS: error= 1.97D-06 at cycle   6 NSaved=   6.
 NSaved= 6 IEnMin= 6 EnMin= -1694.06113114670     IErMin= 6 ErrMin= 1.97D-06
 ErrMax= 1.97D-06  0.00D+00 EMaxC= 1.00D-01 BMatC= 5.73D-10 BMatP= 3.71D-09
 IDIUse=1 WtCom= 1.00D+00 WtEn= 0.00D+00
 Coeff-Com: -0.834D-03 0.898D-01 0.354D-01 0.846D-01 0.281D+00 0.510D+00
 Coeff:     -0.834D-03 0.898D-01 0.354D-01 0.846D-01 0.281D+00 0.510D+00
 Gap=     0.065 Goal=   None    Shift=    0.000
 RMSDP=2.74D-08 MaxDP=1.82D-06 DE=-4.19D-09 OVMax= 1.54D-05

 Cycle  14  Pass 1  IDiag  1:
 RMSU=  1.64D-08    CP:  1.00D+00  1.01D+00  3.43D-01  6.33D-01  9.17D-01
                    CP:  7.94D-01
 E= -1694.06113114735     Delta-E=       -0.000000000655 Rises=F Damp=F
 DIIS: error= 2.37D-07 at cycle   7 NSaved=   7.
 NSaved= 7 IEnMin= 7 EnMin= -1694.06113114735     IErMin= 7 ErrMin= 2.37D-07
 ErrMax= 2.37D-07  0.00D+00 EMaxC= 1.00D-01 BMatC= 1.73D-11 BMatP= 5.73D-10
 IDIUse=1 WtCom= 1.00D+00 WtEn= 0.00D+00
 Coeff-Com: -0.119D-03 0.120D-01 0.411D-02 0.145D-01 0.659D-01 0.187D+00
 Coeff-Com:  0.716D+00
 Coeff:     -0.119D-03 0.120D-01 0.411D-02 0.145D-01 0.659D-01 0.187D+00
 Coeff:      0.716D+00
 Gap=     0.065 Goal=   None    Shift=    0.000
 RMSDP=7.08D-09 MaxDP=2.77D-07 DE=-6.55D-10 OVMax= 1.63D-06

 SCF Done:  E(RB3LYP) =  -1694.06113115     A.U. after   14 cycles
            NFock= 14  Conv=0.71D-08     -V/T= 2.0044
 KE= 1.686678573598D+03 PE=-1.318998063987D+04 EE= 5.179496678160D+03
 Leave Link  502 at Wed Sep 27 16:59:05 2023, MaxMem=  3221225472 cpu:            3502.6 elap:              96.1
 (Enter /home/center/opt/aarch64/apps/gaussian16/c01/g16/l601.exe)
 Copying SCF densities to generalized density rwf, IOpCl= 0 IROHF=0.

 **********************************************************************

            Population analysis using the SCF Density.

 **********************************************************************

 Orbital symmetries:
       Occupied  (A") (A') (A') (A") (A") (A') (A') (A") (A') (A')
                 (A') (A") (A") (A') (A") (A') (A') (A") (A') (A")
                 (A") (A') (A") (A') (A") (A') (A') (A") (A") (A')
                 (A") (A') (A') (A") (A') (A") (A') (A') (A") (A')
                 (A") (A') (A") (A') (A') (A") (A') (A") (A') (A')
                 (A") (A") (A') (A') (A") (A') (A') (A") (A') (A')
                 (A") (A") (A") (A") (A') (A') (A') (A') (A") (A")
                 (A") (A') (A") (A") (A') (A') (A") (A') (A') (A')
                 (A') (A") (A") (A') (A") (A") (A') (A") (A') (A')
                 (A") (A') (A') (A") (A") (A') (A") (A") (A') (A')
                 (A") (A') (A') (A') (A') (A') (A") (A") (A") (A')
                 (A') (A') (A") (A") (A") (A") (A") (A') (A") (A')
                 (A') (A') (A') (A") (A') (A") (A') (A") (A") (A")
                 (A') (A") (A') (A') (A") (A') (A") (A') (A') (A')
                 (A") (A") (A") (A") (A') (A')
       Virtual   (A') (A') (A") (A") (A") (A") (A') (A') (A') (A")
                 (A') (A') (A") (A') (A') (A") (A') (A') (A") (A")
                 (A') (A') (A") (A") (A') (A") (A') (A") (A') (A")
                 (A") (A') (A") (A') (A') (A") (A") (A') (A') (A")
                 (A') (A') (A") (A') (A") (A') (A") (A') (A") (A')
                 (A") (A') (A') (A') (A') (A') (A') (A") (A") (A")
                 (A') (A") (A") (A") (A') (A') (A") (A") (A") (A')
                 (A') (A') (A") (A') (A") (A') (A") (A') (A") (A')
                 (A") (A') (A') (A') (A') (A') (A") (A") (A') (A")
                 (A") (A") (A') (A') (A') (A') (A') (A") (A') (A")
                 (A") (A") (A") (A') (A") (A') (A") (A') (A") (A")
                 (A') (A') (A") (A') (A") (A") (A') (A') (A') (A')
                 (A") (A') (A") (A') (A') (A") (A') (A') (A') (A")
                 (A') (A") (A") (A') (A') (A") (A") (A') (A") (A')
                 (A") (A') (A') (A") (A') (A') (A") (A") (A') (A')
                 (A") (A") (A") (A') (A") (A') (A') (A") (A") (A')
                 (A') (A") (A') (A") (A') (A") (A") (A') (A") (A")
                 (A') (A') (A') (A') (A") (A') (A') (A") (A") (A')
                 (A") (A") (A') (A') (A") (A') (A') (A") (A') (A")
                 (A") (A') (A") (A") (A') (A') (A") (A') (A") (A')
                 (A') (A") (A') (A") (A') (A') (A") (A') (A") (A')
                 (A') (A") (A") (A") (A') (A') (A") (A") (A') (A')
                 (A") (A") (A") (A') (A") (A') (A') (A") (A') (A')
                 (A') (A") (A") (A') (A') (A") (A") (A') (A") (A')
                 (A') (A") (A') (A") (A') (A") (A') (A") (A') (A")
                 (A") (A') (A') (A") (A') (A") (A') (A") (A") (A')
                 (A') (A") (A') (A") (A') (A') (A') (A") (A") (A")
                 (A") (A") (A') (A') (A') (A") (A') (A") (A") (A')
                 (A") (A') (A") (A') (A') (A") (A') (A") (A") (A')
                 (A') (A") (A') (A') (A') (A") (A") (A') (A") (A')
                 (A") (A") (A") (A') (A") (A') (A') (A') (A') (A")
                 (A") (A') (A") (A') (A') (A") (A") (A") (A') (A')
                 (A") (A") (A') (A') (A") (A') (A') (A") (A") (A')
                 (A") (A") (A') (A") (A') (A') (A") (A") (A') (A')
                 (A") (A') (A') (A") (A') (A") (A') (A') (A") (A")
                 (A') (A") (A') (A") (A') (A') (A') (A') (A') (A")
                 (A') (A") (A') (A") (A') (A") (A") (A") (A') (A")
                 (A") (A") (A') (A") (A') (A") (A') (A") (A") (A')
                 (A') (A') (A") (A') (A") (A') (A') (A') (A") (A')
                 (A') (A') (A") (A") (A') (A") (A") (A') (A') (A")
                 (A") (A') (A") (A') (A") (A') (A') (A") (A') (A")
                 (A') (A') (A") (A') (A") (A') (A') (A') (A") (A")
                 (A") (A') (A') (A") (A') (A") (A') (A") (A') (A')
                 (A") (A") (A') (A") (A') (A") (A") (A') (A") (A')
                 (A') (A") (A") (A") (A') (A') (A") (A") (A') (A')
                 (A") (A') (A") (A') (A') (A") (A") (A') (A") (A')
                 (A") (A") (A') (A') (A") (A') (A") (A') (A') (A")
                 (A') (A') (A') (A") (A") (A") (A") (A') (A") (A')
                 (A") (A') (A') (A") (A') (A') (A") (A") (A") (A')
                 (A") (A") (A") (A') (A") (A") (A") (A') (A') (A")
                 (A') (A") (A') (A') (A') (A") (A') (A') (A") (A')
                 (A") (A') (A") (A') (A') (A") (A') (A") (A") (A')
                 (A") (A") (A") (A') (A') (A') (A") (A') (A") (A')
                 (A") (A") (A') (A') (A") (A") (A') (A") (A') (A')
                 (A") (A') (A") (A') (A') (A") (A") (A") (A') (A")
                 (A") (A') (A") (A') (A") (A') (A') (A") (A') (A')
                 (A") (A') (A') (A") (A") (A") (A') (A") (A') (A')
                 (A') (A") (A') (A") (A') (A') (A") (A') (A') (A")
                 (A') (A") (A") (A') (A") (A') (A') (A") (A') (A")
                 (A') (A") (A") (A") (A") (A') (A") (A') (A') (A")
                 (A') (A') (A') (A') (A') (A') (A") (A") (A') (A")
                 (A") (A') (A') (A') (A") (A') (A") (A") (A") (A')
                 (A') (A') (A') (A") (A") (A") (A') (A') (A") (A')
                 (A") (A") (A') (A") (A') (A") (A') (A') (A') (A")
                 (A') (A") (A') (A') (A") (A") (A") (A") (A') (A')
                 (A") (A') (A") (A') (A') (A') (A") (A') (A') (A")
                 (A") (A') (A") (A') (A") (A") (A') (A') (A") (A')
                 (A') (A") (A") (A') (A") (A') (A") (A") (A') (A')
                 (A') (A') (A") (A") (A') (A") (A') (A") (A") (A")
                 (A') (A') (A") (A') (A') (A') (A") (A") (A") (A')
                 (A") (A') (A') (A") (A') (A") (A') (A") (A') (A")
                 (A") (A") (A") (A') (A') (A') (A') (A") (A') (A")
                 (A') (A") (A') (A') (A") (A') (A') (A") (A') (A")
                 (A') (A") (A") (A') (A") (A') (A') (A") (A") (A')
                 (A') (A") (A') (A") (A') (A') (A") (A') (A') (A")
                 (A') (A') (A") (A') (A") (A") (A') (A') (A") (A")
                 (A") (A') (A") (A") (A') (A') (A") (A") (A') (A")
                 (A') (A') (A") (A") (A') (A') (A') (A') (A") (A")
                 (A") (A") (A') (A') (A") (A') (A") (A') (A') (A')
                 (A") (A") (A") (A") (A') (A') (A") (A') (A') (A")
                 (A') (A") (A') (A') (A") (A") (A') (A') (A") (A')
                 (A') (A") (A') (A")
 The electronic state is 1-A'.
 Alpha  occ. eigenvalues --  -10.19644 -10.19644 -10.19608 -10.19607 -10.19533
 Alpha  occ. eigenvalues --  -10.19532 -10.19496 -10.19496 -10.18655 -10.18655
 Alpha  occ. eigenvalues --  -10.18600 -10.18600 -10.18600 -10.18599 -10.18485
 Alpha  occ. eigenvalues --  -10.18485 -10.18471 -10.18471 -10.18417 -10.18417
 Alpha  occ. eigenvalues --  -10.18391 -10.18391 -10.18046 -10.18046 -10.17998
 Alpha  occ. eigenvalues --  -10.17998 -10.17952 -10.17951 -10.17873 -10.17873
 Alpha  occ. eigenvalues --  -10.17123 -10.17123 -10.17048 -10.17048 -10.17047
 Alpha  occ. eigenvalues --  -10.17041 -10.17040 -10.16959 -10.16952 -10.16952
 Alpha  occ. eigenvalues --  -10.16920 -10.16919 -10.16837 -10.16837  -0.90073
 Alpha  occ. eigenvalues --   -0.88569  -0.88445  -0.86993  -0.86240  -0.84688
 Alpha  occ. eigenvalues --   -0.83097  -0.81560  -0.80490  -0.79197  -0.78960
 Alpha  occ. eigenvalues --   -0.78904  -0.77670  -0.77420  -0.76627  -0.75107
 Alpha  occ. eigenvalues --   -0.74937  -0.73534  -0.73398  -0.72023  -0.69838
 Alpha  occ. eigenvalues --   -0.68312  -0.68008  -0.66482  -0.63376  -0.63008
 Alpha  occ. eigenvalues --   -0.61856  -0.61743  -0.61518  -0.60582  -0.60174
 Alpha  occ. eigenvalues --   -0.59919  -0.59044  -0.58407  -0.58311  -0.56830
 Alpha  occ. eigenvalues --   -0.53348  -0.53189  -0.52906  -0.51852  -0.51679
 Alpha  occ. eigenvalues --   -0.51438  -0.50251  -0.49147  -0.48755  -0.47749
 Alpha  occ. eigenvalues --   -0.47682  -0.46697  -0.46301  -0.46151  -0.46126
 Alpha  occ. eigenvalues --   -0.45362  -0.44775  -0.44610  -0.44560  -0.43768
 Alpha  occ. eigenvalues --   -0.43149  -0.43092  -0.42409  -0.42363  -0.42183
 Alpha  occ. eigenvalues --   -0.41943  -0.41695  -0.41362  -0.41024  -0.40896
 Alpha  occ. eigenvalues --   -0.40665  -0.40521  -0.40256  -0.39803  -0.39540
 Alpha  occ. eigenvalues --   -0.38795  -0.38738  -0.37462  -0.37345  -0.36945
 Alpha  occ. eigenvalues --   -0.36145  -0.35904  -0.35524  -0.34742  -0.34505
 Alpha  occ. eigenvalues --   -0.34398  -0.33669  -0.33533  -0.33224  -0.32799
 Alpha  occ. eigenvalues --   -0.32360  -0.32110  -0.32018  -0.30694  -0.30384
 Alpha  occ. eigenvalues --   -0.29097  -0.28767  -0.27594  -0.27328  -0.25736
 Alpha  occ. eigenvalues --   -0.25146  -0.23536  -0.23280  -0.21696  -0.18564
 Alpha  occ. eigenvalues --   -0.16951
 Alpha virt. eigenvalues --   -0.10460  -0.08883  -0.05148  -0.03617  -0.03468
 Alpha virt. eigenvalues --   -0.01907  -0.00832   0.00687   0.01402   0.01666
 Alpha virt. eigenvalues --    0.02446   0.02898   0.03155   0.03724   0.03981
 Alpha virt. eigenvalues --    0.03993   0.04708   0.05447   0.05846   0.05894
 Alpha virt. eigenvalues --    0.06067   0.06623   0.07286   0.07640   0.07852
 Alpha virt. eigenvalues --    0.07959   0.08729   0.09130   0.09142   0.09713
 Alpha virt. eigenvalues --    0.09938   0.10221   0.10827   0.11105   0.11188
 Alpha virt. eigenvalues --    0.11933   0.12695   0.13100   0.13451   0.13452
 Alpha virt. eigenvalues --    0.14256   0.14939   0.15350   0.15779   0.17396
 Alpha virt. eigenvalues --    0.17846   0.18310   0.18501   0.18860   0.19412
 Alpha virt. eigenvalues --    0.19593   0.20167   0.22272   0.22280   0.23714
 Alpha virt. eigenvalues --    0.23800   0.23928   0.24378   0.25028   0.25147
 Alpha virt. eigenvalues --    0.25272   0.26276   0.26952   0.26989   0.27183
 Alpha virt. eigenvalues --    0.27640   0.27777   0.28218   0.28708   0.28713
 Alpha virt. eigenvalues --    0.29022   0.29444   0.29512   0.30052   0.30248
 Alpha virt. eigenvalues --    0.30267   0.30615   0.31287   0.31756   0.32064
 Alpha virt. eigenvalues --    0.32486   0.33977   0.34610   0.34754   0.34811
 Alpha virt. eigenvalues --    0.35168   0.35329   0.35440   0.35638   0.36167
 Alpha virt. eigenvalues --    0.36868   0.36986   0.37685   0.38185   0.38445
 Alpha virt. eigenvalues --    0.38660   0.38753   0.38762   0.38848   0.39294
 Alpha virt. eigenvalues --    0.39363   0.39443   0.39606   0.39801   0.39967
 Alpha virt. eigenvalues --    0.39974   0.39997   0.40561   0.41295   0.41370
 Alpha virt. eigenvalues --    0.41871   0.42335   0.42427   0.42514   0.42516
 Alpha virt. eigenvalues --    0.42906   0.42934   0.43109   0.43328   0.43946
 Alpha virt. eigenvalues --    0.44029   0.44123   0.44529   0.44543   0.44792
 Alpha virt. eigenvalues --    0.45210   0.45252   0.45315   0.45482   0.45650
 Alpha virt. eigenvalues --    0.45948   0.46007   0.46120   0.46580   0.46877
 Alpha virt. eigenvalues --    0.47138   0.47178   0.47345   0.47956   0.48146
 Alpha virt. eigenvalues --    0.48616   0.48802   0.49025   0.49456   0.49721
 Alpha virt. eigenvalues --    0.49753   0.50315   0.50351   0.50470   0.50717
 Alpha virt. eigenvalues --    0.50773   0.50926   0.51481   0.51773   0.52017
 Alpha virt. eigenvalues --    0.52254   0.52882   0.53405   0.54021   0.54091
 Alpha virt. eigenvalues --    0.54985   0.55364   0.55848   0.56195   0.56336
 Alpha virt. eigenvalues --    0.57377   0.57754   0.57845   0.58061   0.58371
 Alpha virt. eigenvalues --    0.58652   0.58697   0.58929   0.59605   0.59681
 Alpha virt. eigenvalues --    0.59923   0.60614   0.61255   0.61447   0.61526
 Alpha virt. eigenvalues --    0.61686   0.61983   0.62194   0.62260   0.62564
 Alpha virt. eigenvalues --    0.62910   0.63210   0.63412   0.63639   0.63811
 Alpha virt. eigenvalues --    0.64005   0.64221   0.64786   0.65562   0.65667
 Alpha virt. eigenvalues --    0.66348   0.66461   0.66620   0.66764   0.66825
 Alpha virt. eigenvalues --    0.67187   0.67553   0.69833   0.70027   0.70872
 Alpha virt. eigenvalues --    0.71025   0.71479   0.71636   0.71783   0.72454
 Alpha virt. eigenvalues --    0.72770   0.72954   0.73359   0.73686   0.73738
 Alpha virt. eigenvalues --    0.74126   0.74610   0.75808   0.76125   0.76253
 Alpha virt. eigenvalues --    0.76406   0.77304   0.77804   0.77830   0.77911
 Alpha virt. eigenvalues --    0.78637   0.79266   0.79476   0.79742   0.80591
 Alpha virt. eigenvalues --    0.80649   0.80992   0.81714   0.81781   0.82377
 Alpha virt. eigenvalues --    0.82606   0.82658   0.82994   0.83486   0.83680
 Alpha virt. eigenvalues --    0.84138   0.84816   0.85096   0.85237   0.85900
 Alpha virt. eigenvalues --    0.86894   0.86991   0.87450   0.87959   0.88134
 Alpha virt. eigenvalues --    0.90020   0.90375   0.90459   0.90578   0.91464
 Alpha virt. eigenvalues --    0.91536   0.92666   0.93450   0.94163   0.94522
 Alpha virt. eigenvalues --    0.95082   0.95561   0.95657   0.96285   0.96903
 Alpha virt. eigenvalues --    0.96977   0.97524   0.97632   0.97910   0.98323
 Alpha virt. eigenvalues --    0.99423   0.99901   0.99917   1.00823   1.01519
 Alpha virt. eigenvalues --    1.01769   1.01960   1.02134   1.02277   1.02728
 Alpha virt. eigenvalues --    1.03017   1.03604   1.04014   1.04612   1.04749
 Alpha virt. eigenvalues --    1.04984   1.05150   1.05406   1.06074   1.06151
 Alpha virt. eigenvalues --    1.06227   1.06457   1.06494   1.06775   1.07012
 Alpha virt. eigenvalues --    1.07101   1.07819   1.08483   1.08517   1.09019
 Alpha virt. eigenvalues --    1.09405   1.09513   1.10494   1.10579   1.10933
 Alpha virt. eigenvalues --    1.11320   1.12379   1.12587   1.12694   1.12720
 Alpha virt. eigenvalues --    1.12843   1.13351   1.13867   1.14130   1.14886
 Alpha virt. eigenvalues --    1.14989   1.15378   1.16261   1.17073   1.17537
 Alpha virt. eigenvalues --    1.17772   1.18288   1.18445   1.19013   1.21072
 Alpha virt. eigenvalues --    1.21446   1.22778   1.22837   1.22957   1.23911
 Alpha virt. eigenvalues --    1.24612   1.25866   1.27282   1.27611   1.29474
 Alpha virt. eigenvalues --    1.29999   1.30678   1.31548   1.32234   1.32816
 Alpha virt. eigenvalues --    1.34257   1.34993   1.35742   1.36747   1.36999
 Alpha virt. eigenvalues --    1.38941   1.39352   1.39615   1.39921   1.40660
 Alpha virt. eigenvalues --    1.40806   1.41391   1.41414   1.41812   1.42145
 Alpha virt. eigenvalues --    1.42381   1.43403   1.44309   1.44394   1.44480
 Alpha virt. eigenvalues --    1.45849   1.45925   1.46590   1.46650   1.47399
 Alpha virt. eigenvalues --    1.47719   1.48132   1.48483   1.48650   1.48795
 Alpha virt. eigenvalues --    1.48994   1.50050   1.50097   1.50314   1.50622
 Alpha virt. eigenvalues --    1.50834   1.51547   1.51689   1.52318   1.52847
 Alpha virt. eigenvalues --    1.53207   1.53449   1.53622   1.53641   1.54349
 Alpha virt. eigenvalues --    1.54823   1.55246   1.55349   1.55436   1.55927
 Alpha virt. eigenvalues --    1.56136   1.57755   1.57824   1.58221   1.58898
 Alpha virt. eigenvalues --    1.59406   1.59478   1.60144   1.60755   1.61107
 Alpha virt. eigenvalues --    1.62197   1.62231   1.62414   1.62810   1.64544
 Alpha virt. eigenvalues --    1.65155   1.65646   1.65994   1.67061   1.67680
 Alpha virt. eigenvalues --    1.68788   1.69002   1.69767   1.70586   1.70655
 Alpha virt. eigenvalues --    1.70929   1.71544   1.71869   1.72231   1.72914
 Alpha virt. eigenvalues --    1.73258   1.73343   1.73607   1.73880   1.73883
 Alpha virt. eigenvalues --    1.74420   1.74659   1.74793   1.75121   1.76624
 Alpha virt. eigenvalues --    1.76903   1.78160   1.78553   1.78696   1.79943
 Alpha virt. eigenvalues --    1.80125   1.80135   1.80436   1.81420   1.82201
 Alpha virt. eigenvalues --    1.82274   1.82512   1.82606   1.82846   1.82921
 Alpha virt. eigenvalues --    1.83579   1.83813   1.83918   1.84985   1.85266
 Alpha virt. eigenvalues --    1.85713   1.86768   1.86948   1.87041   1.87210
 Alpha virt. eigenvalues --    1.87264   1.87786   1.88380   1.88581   1.88672
 Alpha virt. eigenvalues --    1.88986   1.89197   1.89412   1.89728   1.90757
 Alpha virt. eigenvalues --    1.91119   1.91487   1.91993   1.92036   1.92470
 Alpha virt. eigenvalues --    1.92638   1.92819   1.93224   1.93227   1.93534
 Alpha virt. eigenvalues --    1.93752   1.94082   1.94593   1.94597   1.95743
 Alpha virt. eigenvalues --    1.95878   1.96125   1.96359   1.97190   1.97469
 Alpha virt. eigenvalues --    1.99362   1.99432   2.00584   2.00624   2.00761
 Alpha virt. eigenvalues --    2.01532   2.01707   2.02627   2.02913   2.03687
 Alpha virt. eigenvalues --    2.06025   2.06938   2.07505   2.08485   2.08567
 Alpha virt. eigenvalues --    2.09148   2.09564   2.10235   2.11362   2.11599
 Alpha virt. eigenvalues --    2.11668   2.12593   2.13303   2.14047   2.15211
 Alpha virt. eigenvalues --    2.15413   2.16180   2.16587   2.16973   2.17920
 Alpha virt. eigenvalues --    2.18132   2.19124   2.20242   2.21954   2.21967
 Alpha virt. eigenvalues --    2.22304   2.22764   2.22920   2.23082   2.23894
 Alpha virt. eigenvalues --    2.24307   2.25497   2.25652   2.26615   2.26701
 Alpha virt. eigenvalues --    2.26873   2.27040   2.27490   2.27522   2.28218
 Alpha virt. eigenvalues --    2.28252   2.29497   2.29583   2.30867   2.32560
 Alpha virt. eigenvalues --    2.34415   2.35105   2.35222   2.36793   2.38627
 Alpha virt. eigenvalues --    2.38733   2.40211   2.40335   2.40709   2.42176
 Alpha virt. eigenvalues --    2.42285   2.42767   2.44186   2.44558   2.45078
 Alpha virt. eigenvalues --    2.45326   2.45948   2.46840   2.46997   2.48990
 Alpha virt. eigenvalues --    2.51497   2.52846   2.52983   2.53212   2.54138
 Alpha virt. eigenvalues --    2.54663   2.55074   2.56424   2.56588   2.56971
 Alpha virt. eigenvalues --    2.58245   2.58383   2.59005   2.59169   2.59487
 Alpha virt. eigenvalues --    2.60077   2.60778   2.60999   2.61253   2.61455
 Alpha virt. eigenvalues --    2.61832   2.61882   2.62232   2.62730   2.62988
 Alpha virt. eigenvalues --    2.63822   2.63969   2.64034   2.64135   2.65124
 Alpha virt. eigenvalues --    2.65427   2.65495   2.66092   2.66663   2.66687
 Alpha virt. eigenvalues --    2.66873   2.67261   2.67869   2.67976   2.68227
 Alpha virt. eigenvalues --    2.68355   2.68632   2.68876   2.68988   2.69439
 Alpha virt. eigenvalues --    2.69533   2.69579   2.70033   2.71095   2.71144
 Alpha virt. eigenvalues --    2.71782   2.72080   2.72091   2.72937   2.72982
 Alpha virt. eigenvalues --    2.73181   2.73426   2.73574   2.74308   2.74385
 Alpha virt. eigenvalues --    2.74858   2.75153   2.75468   2.76525   2.77049
 Alpha virt. eigenvalues --    2.77145   2.77320   2.77952   2.78248   2.78900
 Alpha virt. eigenvalues --    2.79262   2.79286   2.79713   2.80268   2.80802
 Alpha virt. eigenvalues --    2.81605   2.82428   2.83143   2.83771   2.84999
 Alpha virt. eigenvalues --    2.85720   2.86167   2.86892   2.87222   2.87309
 Alpha virt. eigenvalues --    2.88659   2.88881   2.90035   2.90387   2.91969
 Alpha virt. eigenvalues --    2.93159   2.93203   2.93398   2.93650   2.93691
 Alpha virt. eigenvalues --    2.96209   2.96362   2.97049   2.97881   2.98064
 Alpha virt. eigenvalues --    2.98665   2.98671   3.00463   3.02139   3.02226
 Alpha virt. eigenvalues --    3.04742   3.05059   3.05887   3.06959   3.07579
 Alpha virt. eigenvalues --    3.08630   3.09020   3.15644   3.16079   3.16753
 Alpha virt. eigenvalues --    3.17091   3.17551   3.18010   3.19216   3.20451
 Alpha virt. eigenvalues --    3.20910   3.21455   3.24202   3.24635   3.29570
 Alpha virt. eigenvalues --    3.30335   3.30409   3.30816   3.31023   3.32893
 Alpha virt. eigenvalues --    3.35277   3.35666   3.36423   3.36592   3.36800
 Alpha virt. eigenvalues --    3.37235   3.37336   3.38043   3.39070   3.39246
 Alpha virt. eigenvalues --    3.40784   3.40924   3.41393   3.42563   3.44483
 Alpha virt. eigenvalues --    3.44787   3.45988   3.46552   3.49183   3.49264
 Alpha virt. eigenvalues --    3.50085   3.51384   3.51988   3.51998   3.52867
 Alpha virt. eigenvalues --    3.54540   3.56854   3.58297   3.58542   3.59798
 Alpha virt. eigenvalues --    3.61345   3.62307   3.62613   3.63342   3.63985
 Alpha virt. eigenvalues --    3.64082   3.66362   3.66438   3.67443   3.68256
 Alpha virt. eigenvalues --    3.68578   3.69732   3.71436   3.71597   4.00066
 Alpha virt. eigenvalues --    4.00107   4.01279   4.01603   4.01849   4.01880
 Alpha virt. eigenvalues --    4.02913   4.03246   4.15554   4.16105   4.17340
 Alpha virt. eigenvalues --    4.18041   4.18656   4.20384   4.20659   4.21801
 Alpha virt. eigenvalues --    4.21894   4.22820   4.23878   4.25078   4.25706
 Alpha virt. eigenvalues --    4.28573   4.38253   4.40478   4.61828   4.64017
 Alpha virt. eigenvalues --    4.78508   4.79105   4.79885   4.80642   4.81020
 Alpha virt. eigenvalues --    4.81888   4.82244   4.82339   4.84428   4.84696
 Alpha virt. eigenvalues --   23.39861  23.44391  23.55068  23.59992  23.69630
 Alpha virt. eigenvalues --   23.73791  23.76824  23.78840  23.80926  23.80963
 Alpha virt. eigenvalues --   23.82568  23.84384  23.85509  23.87414  23.88461
 Alpha virt. eigenvalues --   23.89697  23.90443  23.91554  23.91637  23.93922
 Alpha virt. eigenvalues --   23.96859  23.98451  23.98600  23.99522  24.08806
 Alpha virt. eigenvalues --   24.09449  24.10150  24.10195  24.10894  24.11497
 Alpha virt. eigenvalues --   24.11550  24.13112  24.13400  24.13700  24.14908
 Alpha virt. eigenvalues --   24.15220  24.15260  24.15596  24.16633  24.16664
 Alpha virt. eigenvalues --   24.19848  24.19893  24.21454  24.21519
          Condensed to atoms (all electrons):
 Mulliken charges:
               1
     1  C   -0.066886
     2  C   -0.066886
     3  C   -0.056942
     4  C   -0.056942
     5  C   -0.094718
     6  C   -0.094718
     7  C   -0.015839
     8  C   -0.061850
     9  C   -0.015839
    10  C   -0.061850
    11  H    0.085068
    12  H    0.077348
    13  H    0.077348
    14  H    0.085068
    15  H    0.097891
    16  H    0.097891
    17  C   -0.020397
    18  C   -0.061850
    19  C   -0.020397
    20  C   -0.061850
    21  H    0.076029
    22  H    0.076029
    23  C   -0.015839
    24  C   -0.066886
    25  C   -0.015839
    26  C   -0.066886
    27  H    0.077348
    28  H    0.077348
    29  C   -0.056942
    30  C   -0.094718
    31  C   -0.056942
    32  C   -0.094718
    33  H    0.085068
    34  H    0.097891
    35  H    0.097891
    36  H    0.085068
    37  C   -0.028336
    38  C   -0.118836
    39  C   -0.062960
    40  C   -0.045878
    41  C   -0.087095
    42  C   -0.120453
    43  C   -0.029666
    44  C   -0.017581
    45  C   -0.004031
    46  C   -0.123102
    47  H    0.078656
    48  H    0.070465
    49  H    0.124306
    50  H    0.128295
    51  H    0.086518
    52  H    0.091155
    53  C   -0.034003
    54  C   -0.017581
    55  C   -0.007694
    56  C   -0.123102
    57  H    0.069066
    58  H    0.122167
    59  C   -0.029666
    60  C   -0.028336
    61  C   -0.004031
    62  C   -0.118836
    63  H    0.070465
    64  H    0.124306
    65  C   -0.062960
    66  C   -0.087095
    67  C   -0.045878
    68  C   -0.120453
    69  H    0.078656
    70  H    0.091155
    71  H    0.086518
    72  H    0.128295
 Sum of Mulliken charges =   0.00000
 Mulliken charges with hydrogens summed into heavy atoms:
               1
     1  C   -0.066886
     2  C   -0.066886
     3  C    0.028127
     4  C    0.028127
     5  C    0.003172
     6  C    0.003172
     7  C    0.061508
     8  C   -0.061850
     9  C    0.061509
    10  C   -0.061850
    17  C    0.055631
    18  C   -0.061850
    19  C    0.055631
    20  C   -0.061850
    23  C    0.061508
    24  C   -0.066886
    25  C    0.061509
    26  C   -0.066886
    29  C    0.028127
    30  C    0.003172
    31  C    0.028127
    32  C    0.003172
    37  C   -0.028336
    38  C   -0.118836
    39  C    0.015696
    40  C    0.082417
    41  C    0.004060
    42  C   -0.033935
    43  C    0.040799
    44  C   -0.017581
    45  C    0.120275
    46  C   -0.123102
    53  C    0.035064
    54  C   -0.017581
    55  C    0.114473
    56  C   -0.123102
    59  C    0.040799
    60  C   -0.028336
    61  C    0.120275
    62  C   -0.118836
    65  C    0.015696
    66  C    0.004060
    67  C    0.082417
    68  C   -0.033935
         Mulliken charges condensed to fragments:
      1     -0.032451
      2      0.032451
 Electronic spatial extent (au):  <R**2>=          25930.2573
 Charge=              0.0000 electrons
 Dipole moment (field-independent basis, Debye):
    X=              0.0000    Y=             -1.4772    Z=              0.0000  Tot=              1.4772
 Quadrupole moment (field-independent basis, Debye-Ang):
   XX=           -245.8464   YY=           -249.3890   ZZ=           -219.8175
   XY=              0.0000   XZ=              0.0000   YZ=              0.0000
 Traceless Quadrupole moment (field-independent basis, Debye-Ang):
   XX=             -7.4954   YY=            -11.0381   ZZ=             18.5334
   XY=              0.0000   XZ=              0.0000   YZ=              0.0000
 Octapole moment (field-independent basis, Debye-Ang**2):
  XXX=              0.0000  YYY=            177.4798  ZZZ=              0.0000  XYY=              0.0000
  XXY=            -72.6899  XXZ=              0.0000  XZZ=              0.0000  YZZ=            -33.6605
  YYZ=              0.0000  XYZ=              0.0000
 Hexadecapole moment (field-independent basis, Debye-Ang**3):
 XXXX=          -1258.8534 YYYY=         -11761.8305 ZZZZ=         -21038.6891 XXXY=             -0.0001
 XXXZ=              0.0000 YYYX=              0.0001 YYYZ=              0.0000 ZZZX=              0.0000
 ZZZY=              0.0000 XXYY=          -2242.5889 XXZZ=          -4159.8951 YYZZ=          -5747.9327
 XXYZ=              0.0000 YYXZ=              0.0000 ZZXY=              0.0001
 N-N= 4.629744256964D+03 E-N=-1.318998067227D+04  KE= 1.686678573598D+03
 Symmetry A'   KE= 9.134201109352D+02
 Symmetry A"   KE= 7.732584626624D+02
 No NMR shielding tensors so no spin-rotation constants.
 Leave Link  601 at Wed Sep 27 16:59:09 2023, MaxMem=  3221225472 cpu:              44.7 elap:               1.4
 (Enter /home/center/opt/aarch64/apps/gaussian16/c01/g16/l122.exe)
 CPIOFr:  IOpCl= 0 IRwI=-1 IRwCP=  731 ICalc= -1 LCPTot=     1419224 Len1MO=     3708034 IndFrg=     1419224
 CPIOFr:  IOpCl= 0 IRwI=-1 IRwCP=  731 ICalc=  0 LCPTot=     1419224 Len1MO=     3708034 IndFrg=     5127258
 Counterpoise: doing calculation for fragment   1 using the basis set of the full-system, NewBq=T
 Leave Link  122 at Wed Sep 27 16:59:11 2023, MaxMem=  3221225472 cpu:               8.7 elap:               0.4
 (Enter /home/center/opt/aarch64/apps/gaussian16/c01/g16/l301.exe)
 Basis read from rwf:  (5D, 7F)
 No pseudopotential information found on rwf file.
 There are   528 symmetry adapted cartesian basis functions of A'  symmetry.
 There are   476 symmetry adapted cartesian basis functions of A"  symmetry.
 There are   504 symmetry adapted basis functions of A'  symmetry.
 There are   456 symmetry adapted basis functions of A"  symmetry.
   960 basis functions,  1632 primitive gaussians,  1004 cartesian basis functions
    73 alpha electrons       73 beta electrons
       nuclear repulsion energy      1494.3575060491 Hartrees.
 IExCor=  402 DFT=T Ex+Corr=B3LYP ExCW=0 ScaHFX=  0.200000
 ScaDFX=  0.800000  0.720000  1.000000  0.810000 ScalE2=  1.000000  1.000000
 IRadAn=      5 IRanWt=     -1 IRanGd=            0 ICorTp=0 IEmpDi=131
 NAtoms=   72 NActive=   72 NUniq=   40 SFac= 3.24D+00 NAtFMM=   60 NAOKFM=T Big=F
 Integral buffers will be    131072 words long.
 Raffenetti 2 integral format.
 Two-electron integral symmetry is turned on.
 R6Disp:  Grimme-D3 Dispersion energy=       -0.0303938888 Hartrees.
 Nuclear repulsion after empirical dispersion term =     1494.3271121603 Hartrees.
 No density basis found on file    718.
 Leave Link  301 at Wed Sep 27 16:59:14 2023, MaxMem=  3221225472 cpu:               3.4 elap:               0.1
 (Enter /home/center/opt/aarch64/apps/gaussian16/c01/g16/l302.exe)
 NPDir=0 NMtPBC=     1 NCelOv=     1 NCel=       1 NClECP=     1 NCelD=      1
         NCelK=      1 NCelE2=     1 NClLst=     1 CellRange=     0.0.
 One-electron integrals computed using PRISM.
 One-electron integral symmetry used in STVInt
 NBasis=   960 RedAO= T EigKep=  3.83D-05  NBF=   504   456
 NBsUse=   960 1.00D-06 EigRej= -1.00D+00 NBFU=   504   456
 Precomputing XC quadrature grid using
 IXCGrd= 4 IRadAn=           5 IRanWt=          -1 IRanGd=           0 AccXCQ= 0.00D+00.
 Generated NRdTot=       0 NPtTot=           0 NUsed=           0 NTot=          32
 NSgBfM=   991   987   991   991   991 MxSgAt=    72 MxSgA2=    72.
 Leave Link  302 at Wed Sep 27 16:59:18 2023, MaxMem=  3221225472 cpu:              59.9 elap:               1.6
 (Enter /home/center/opt/aarch64/apps/gaussian16/c01/g16/l303.exe)
 DipDrv:  MaxL=1.
 Leave Link  303 at Wed Sep 27 16:59:20 2023, MaxMem=  3221225472 cpu:              12.2 elap:               0.3
 (Enter /home/center/opt/aarch64/apps/gaussian16/c01/g16/l401.exe)
 ExpMin= 1.03D-01 ExpMax= 4.56D+03 ExpMxC= 6.82D+02 IAcc=3 IRadAn=         5 AccDes= 0.00D+00
 Harris functional with IExCor=  402 and IRadAn=       5 diagonalized for initial guess.
 HarFok:  IExCor=  402 AccDes= 0.00D+00 IRadAn=         5 IDoV= 1 UseB2=F ITyADJ=14
 ICtDFT=  3500011 ScaDFX=  1.000000  1.000000  1.000000  1.000000
 FoFCou: FMM=F IPFlag=           0 FMFlag=      100000 FMFlg1=        2000
         NFxFlg=           0 DoJE=T BraDBF=F KetDBF=T FulRan=T
         wScrn=  0.000000 ICntrl=       500 IOpCl=  0 I1Cent=   200000004 NGrid=           0
         NMat0=    1 NMatS0=      1 NMatT0=    0 NMatD0=    1 NMtDS0=    0 NMtDT0=    0
 Petite list used in FoFCou.
 Harris En= -847.066711030528    
 JPrj=0 DoOrth=F DoCkMO=F.
 Initial guess orbital symmetries:
       Occupied  (A") (A') (A') (A") (A") (A') (A") (A') (A') (A")
                 (A") (A') (A') (A') (A") (A') (A") (A') (A") (A')
                 (A') (A") (A') (A") (A') (A") (A') (A') (A") (A')
                 (A") (A") (A') (A') (A") (A") (A') (A") (A') (A')
                 (A') (A") (A") (A") (A') (A') (A") (A') (A') (A")
                 (A') (A") (A") (A') (A') (A") (A') (A") (A') (A")
                 (A") (A') (A') (A") (A') (A") (A') (A") (A') (A')
                 (A") (A") (A')
       Virtual   (A') (A") (A") (A') (A') (A") (A') (A") (A') (A")
                 (A') (A') (A") (A') (A") (A') (A') (A") (A') (A")
                 (A") (A") (A') (A') (A") (A') (A') (A') (A') (A")
                 (A') (A") (A") (A') (A') (A") (A') (A") (A") (A')
                 (A') (A") (A") (A') (A") (A') (A") (A') (A") (A')
                 (A') (A") (A') (A") (A') (A') (A") (A") (A') (A")
                 (A') (A') (A') (A') (A") (A") (A") (A") (A') (A")
                 (A') (A') (A') (A") (A') (A') (A") (A') (A') (A')
                 (A") (A") (A") (A") (A') (A') (A") (A") (A') (A')
                 (A") (A') (A") (A") (A') (A') (A') (A") (A") (A')
                 (A') (A') (A") (A') (A") (A") (A') (A') (A") (A')
                 (A') (A") (A') (A') (A") (A") (A") (A") (A') (A")
                 (A") (A') (A') (A") (A') (A") (A') (A') (A") (A')
                 (A") (A') (A') (A') (A') (A") (A") (A") (A') (A')
                 (A') (A") (A') (A") (A') (A") (A') (A") (A') (A")
                 (A") (A") (A') (A') (A") (A') (A") (A') (A') (A")
                 (A") (A') (A') (A") (A') (A') (A') (A") (A") (A")
                 (A") (A') (A") (A') (A') (A') (A") (A') (A') (A")
                 (A") (A") (A') (A') (A") (A") (A') (A") (A") (A')
                 (A') (A') (A') (A') (A") (A') (A') (A") (A") (A")
                 (A") (A') (A") (A') (A") (A') (A") (A') (A') (A")
                 (A") (A') (A') (A") (A") (A') (A") (A") (A') (A')
                 (A') (A") (A') (A") (A') (A') (A") (A') (A") (A')
                 (A") (A') (A') (A") (A") (A') (A") (A") (A') (A")
                 (A') (A') (A") (A") (A') (A') (A") (A') (A") (A")
                 (A") (A") (A') (A') (A') (A') (A') (A') (A") (A")
                 (A') (A") (A") (A') (A') (A') (A") (A") (A') (A")
                 (A') (A') (A") (A") (A") (A') (A") (A') (A") (A')
                 (A') (A") (A") (A') (A') (A") (A') (A") (A') (A")
                 (A') (A') (A') (A") (A') (A') (A") (A") (A') (A")
                 (A') (A') (A") (A') (A') (A") (A") (A") (A') (A')
                 (A") (A") (A") (A') (A") (A') (A') (A") (A') (A')
                 (A") (A") (A') (A") (A') (A') (A") (A') (A") (A')
                 (A') (A") (A') (A') (A") (A') (A") (A') (A") (A")
                 (A') (A") (A") (A') (A') (A") (A") (A') (A') (A')
                 (A") (A') (A") (A') (A') (A") (A') (A") (A') (A")
                 (A') (A') (A") (A') (A") (A') (A") (A") (A') (A')
                 (A") (A") (A") (A") (A') (A") (A') (A') (A") (A')
                 (A') (A") (A') (A") (A") (A') (A') (A") (A') (A")
                 (A') (A") (A") (A') (A") (A') (A') (A') (A") (A")
                 (A') (A') (A") (A') (A") (A") (A") (A') (A') (A")
                 (A") (A') (A') (A') (A') (A") (A") (A') (A') (A")
                 (A") (A") (A') (A") (A') (A") (A") (A") (A') (A")
                 (A') (A') (A') (A') (A') (A") (A') (A") (A") (A')
                 (A') (A") (A') (A") (A') (A') (A") (A") (A") (A')
                 (A") (A') (A') (A') (A") (A") (A') (A') (A") (A")
                 (A') (A") (A') (A") (A') (A") (A') (A") (A') (A')
                 (A") (A") (A') (A") (A') (A") (A") (A') (A') (A")
                 (A") (A') (A") (A') (A") (A') (A') (A") (A") (A')
                 (A") (A') (A") (A') (A') (A') (A") (A') (A") (A")
                 (A") (A') (A') (A") (A') (A") (A') (A") (A') (A')
                 (A') (A") (A") (A") (A") (A") (A') (A') (A') (A')
                 (A") (A") (A') (A') (A") (A') (A') (A") (A") (A')
                 (A") (A') (A') (A") (A') (A') (A") (A") (A') (A")
                 (A') (A") (A') (A') (A') (A") (A") (A') (A") (A')
                 (A') (A") (A") (A') (A") (A") (A') (A') (A') (A")
                 (A') (A") (A') (A") (A') (A") (A") (A') (A") (A')
                 (A") (A') (A') (A") (A') (A') (A") (A') (A') (A")
                 (A") (A') (A") (A") (A') (A") (A') (A") (A") (A')
                 (A') (A') (A') (A") (A') (A") (A') (A") (A') (A")
                 (A') (A") (A") (A") (A') (A') (A") (A') (A") (A')
                 (A') (A") (A') (A") (A') (A") (A') (A") (A') (A')
                 (A") (A') (A") (A") (A') (A") (A") (A') (A') (A")
                 (A') (A") (A") (A") (A") (A') (A') (A') (A') (A')
                 (A") (A") (A') (A") (A") (A') (A") (A') (A') (A")
                 (A") (A') (A') (A") (A') (A") (A") (A') (A") (A')
                 (A") (A') (A') (A") (A") (A') (A") (A") (A') (A')
                 (A') (A") (A") (A') (A') (A") (A') (A") (A') (A')
                 (A") (A') (A") (A') (A") (A') (A') (A') (A") (A")
                 (A') (A") (A') (A') (A") (A") (A') (A") (A') (A')
                 (A") (A") (A') (A") (A') (A") (A') (A') (A") (A')
                 (A") (A') (A") (A') (A") (A') (A') (A") (A') (A')
                 (A") (A') (A") (A") (A") (A') (A') (A') (A') (A")
                 (A") (A") (A') (A") (A') (A') (A") (A") (A") (A')
                 (A") (A') (A") (A') (A") (A') (A') (A") (A") (A')
                 (A') (A") (A') (A') (A") (A') (A") (A') (A") (A')
                 (A") (A') (A') (A") (A") (A') (A') (A') (A") (A")
                 (A") (A') (A') (A") (A') (A') (A") (A') (A") (A')
                 (A") (A') (A') (A") (A") (A") (A') (A") (A') (A')
                 (A") (A') (A") (A") (A') (A") (A') (A') (A') (A")
                 (A") (A') (A") (A') (A") (A') (A") (A') (A') (A")
                 (A") (A') (A') (A") (A') (A") (A") (A') (A") (A')
[...]
                 (A') (A') (A") (A") (A') (A") (A') (A") (A') (A')
                 (A") (A") (A')
       Virtual   (A') (A") (A") (A') (A') (A") (A') (A') (A') (A")
                 (A") (A') (A") (A') (A") (A') (A") (A") (A') (A")
                 (A') (A') (A") (A') (A") (A') (A') (A') (A') (A")
                 (A") (A") (A") (A') (A') (A") (A') (A") (A') (A")
                 (A') (A') (A') (A") (A') (A") (A") (A') (A') (A")
                 (A") (A') (A') (A") (A') (A") (A") (A") (A') (A")
                 (A') (A') (A') (A') (A') (A") (A') (A') (A") (A")
                 (A") (A') (A') (A') (A") (A') (A") (A") (A") (A')
                 (A') (A") (A') (A") (A") (A') (A") (A') (A') (A')
                 (A') (A') (A") (A") (A") (A") (A') (A") (A') (A")
                 (A') (A') (A') (A") (A") (A') (A') (A") (A') (A")
                 (A') (A") (A") (A") (A') (A') (A") (A') (A') (A")
                 (A') (A") (A") (A') (A') (A") (A') (A") (A') (A")
                 (A") (A') (A') (A') (A') (A") (A") (A") (A') (A")
                 (A') (A") (A') (A") (A') (A') (A") (A") (A') (A")
                 (A') (A") (A') (A") (A') (A') (A") (A') (A") (A")
                 (A') (A") (A') (A') (A") (A") (A') (A") (A') (A")
                 (A') (A') (A") (A') (A') (A") (A") (A') (A') (A')
                 (A") (A') (A") (A") (A") (A") (A') (A") (A') (A')
                 (A") (A') (A") (A') (A') (A') (A") (A') (A") (A')
                 (A") (A") (A') (A') (A") (A") (A') (A') (A") (A')
                 (A') (A') (A') (A") (A") (A") (A") (A') (A') (A")
                 (A') (A") (A") (A') (A") (A') (A") (A') (A") (A')
                 (A") (A') (A') (A") (A') (A") (A") (A') (A') (A")
                 (A") (A') (A') (A") (A") (A') (A") (A") (A") (A')
                 (A') (A") (A') (A') (A") (A') (A') (A") (A') (A")
                 (A") (A') (A") (A') (A') (A") (A") (A") (A') (A')
                 (A") (A') (A') (A") (A") (A") (A') (A") (A') (A')
                 (A") (A') (A") (A') (A") (A') (A') (A') (A") (A')
                 (A") (A") (A') (A') (A") (A") (A') (A") (A') (A")
                 (A') (A') (A") (A") (A') (A') (A") (A') (A') (A')
                 (A") (A") (A') (A") (A') (A") (A') (A") (A') (A')
                 (A') (A") (A") (A") (A') (A") (A') (A') (A') (A")
                 (A") (A') (A") (A') (A') (A") (A') (A") (A") (A')
                 (A') (A") (A') (A") (A") (A') (A') (A") (A') (A")
                 (A') (A") (A') (A") (A') (A") (A") (A') (A') (A")
                 (A') (A") (A') (A') (A") (A") (A') (A") (A') (A')
                 (A") (A') (A") (A') (A') (A") (A') (A") (A') (A")
                 (A") (A') (A") (A') (A") (A') (A") (A') (A') (A")
                 (A") (A') (A") (A') (A') (A") (A") (A') (A') (A")
                 (A') (A") (A') (A") (A') (A') (A")
 The electronic state is 1-A'.
 Alpha  occ. eigenvalues --  -10.18931 -10.18930 -10.18896 -10.18895 -10.18848
 Alpha  occ. eigenvalues --  -10.18848 -10.18813 -10.18813 -10.17956 -10.17955
 Alpha  occ. eigenvalues --  -10.17920 -10.17920 -10.17919 -10.17919 -10.17875
 Alpha  occ. eigenvalues --  -10.17875 -10.17863 -10.17863 -10.17808 -10.17808
 Alpha  occ. eigenvalues --  -10.17781 -10.17781  -0.89340  -0.87865  -0.85549
 Alpha  occ. eigenvalues --   -0.82415  -0.79820  -0.78521  -0.78314  -0.75991
 Alpha  occ. eigenvalues --   -0.74255  -0.72901  -0.69196  -0.67344  -0.62728
 Alpha  occ. eigenvalues --   -0.62370  -0.61108  -0.59964  -0.59301  -0.57689
 Alpha  occ. eigenvalues --   -0.52709  -0.52573  -0.52293  -0.49654  -0.48513
 Alpha  occ. eigenvalues --   -0.47160  -0.46110  -0.45590  -0.45476  -0.43928
 Alpha  occ. eigenvalues --   -0.43182  -0.42578  -0.41808  -0.41572  -0.41386
 Alpha  occ. eigenvalues --   -0.40692  -0.40405  -0.39579  -0.38193  -0.36732
 Alpha  occ. eigenvalues --   -0.36341  -0.35550  -0.34094  -0.33809  -0.33058
 Alpha  occ. eigenvalues --   -0.32930  -0.31612  -0.29665  -0.28406  -0.26623
 Alpha  occ. eigenvalues --   -0.24364  -0.22582  -0.17855
 Alpha virt. eigenvalues --   -0.09755  -0.04464  -0.02747  -0.00147   0.02073
 Alpha virt. eigenvalues --    0.02370   0.03189   0.04746   0.04859   0.04871
 Alpha virt. eigenvalues --    0.06161   0.06575   0.07968   0.08162   0.08303
 Alpha virt. eigenvalues --    0.09607   0.10049   0.11524   0.11533   0.13796
 Alpha virt. eigenvalues --    0.14111   0.14670   0.18092   0.18194   0.18832
 Alpha virt. eigenvalues --    0.19391   0.22815   0.23002   0.24379   0.24942
 Alpha virt. eigenvalues --    0.25581   0.27528   0.27575   0.28012   0.28228
 Alpha virt. eigenvalues --    0.28947   0.29389   0.30158   0.30759   0.31175
 Alpha virt. eigenvalues --    0.32897   0.34528   0.36420   0.36484   0.37134
 Alpha virt. eigenvalues --    0.37503   0.37629   0.37651   0.38116   0.38643
 Alpha virt. eigenvalues --    0.39094   0.39439   0.39739   0.40236   0.40435
 Alpha virt. eigenvalues --    0.41918   0.41926   0.41940   0.42289   0.42318
 Alpha virt. eigenvalues --    0.42643   0.43748   0.44233   0.44835   0.45295
 Alpha virt. eigenvalues --    0.45683   0.45924   0.45953   0.46379   0.47165
 Alpha virt. eigenvalues --    0.47805   0.47809   0.47978   0.48073   0.48231
 Alpha virt. eigenvalues --    0.48568   0.49414   0.49572   0.51377   0.51846
 Alpha virt. eigenvalues --    0.52370   0.53118   0.53671   0.55998   0.57923
 Alpha virt. eigenvalues --    0.57955   0.59048   0.59201   0.60433   0.60585
 Alpha virt. eigenvalues --    0.60693   0.61101   0.61690   0.62105   0.62173
 Alpha virt. eigenvalues --    0.63432   0.63481   0.64458   0.64535   0.65533
 Alpha virt. eigenvalues --    0.66693   0.66910   0.67680   0.67724   0.70658
 Alpha virt. eigenvalues --    0.71305   0.71405   0.71494   0.72803   0.73989
 Alpha virt. eigenvalues --    0.75405   0.75894   0.76289   0.77801   0.77809
 Alpha virt. eigenvalues --    0.78943   0.79160   0.79723   0.81162   0.81509
 Alpha virt. eigenvalues --    0.82881   0.83001   0.84383   0.84585   0.84713
 Alpha virt. eigenvalues --    0.88087   0.89711   0.89765   0.91536   0.92083
 Alpha virt. eigenvalues --    0.92578   0.93749   0.95806   0.96107   0.96442
 Alpha virt. eigenvalues --    0.96590   0.96905   0.98547   1.00356   1.01118
 Alpha virt. eigenvalues --    1.02686   1.03027   1.03354   1.04405   1.05244
 Alpha virt. eigenvalues --    1.05439   1.05525   1.05950   1.07395   1.07547
 Alpha virt. eigenvalues --    1.07686   1.08438   1.10005   1.10036   1.12070
 Alpha virt. eigenvalues --    1.13223   1.13544   1.13650   1.14526   1.15341
 Alpha virt. eigenvalues --    1.17432   1.18332   1.19657   1.20432   1.23014
 Alpha virt. eigenvalues --    1.23618   1.27884   1.28234   1.30579   1.32076
 Alpha virt. eigenvalues --    1.32743   1.34942   1.37641   1.39236   1.39896
 Alpha virt. eigenvalues --    1.39942   1.40725   1.42751   1.43476   1.43554
 Alpha virt. eigenvalues --    1.45057   1.46086   1.47119   1.47538   1.48841
 Alpha virt. eigenvalues --    1.49280   1.49417   1.50258   1.50674   1.52268
 Alpha virt. eigenvalues --    1.52650   1.53402   1.54331   1.54372   1.54781
 Alpha virt. eigenvalues --    1.54807   1.57107   1.57715   1.58569   1.59882
 Alpha virt. eigenvalues --    1.60106   1.62692   1.63242   1.64856   1.66641
 Alpha virt. eigenvalues --    1.69292   1.69605   1.69709   1.70649   1.71804
 Alpha virt. eigenvalues --    1.72459   1.72619   1.73075   1.73096   1.73680
 Alpha virt. eigenvalues --    1.77494   1.78519   1.79157   1.79419   1.80511
 Alpha virt. eigenvalues --    1.81616   1.81887   1.82058   1.83581   1.84039
 Alpha virt. eigenvalues --    1.85487   1.87392   1.87456   1.87577   1.87728
 Alpha virt. eigenvalues --    1.88131   1.88613   1.90743   1.91387   1.92190
 Alpha virt. eigenvalues --    1.92193   1.92572   1.92670   1.93517   1.93938
 Alpha virt. eigenvalues --    1.94544   1.95483   1.97262   1.99429   2.00088
 Alpha virt. eigenvalues --    2.00602   2.01362   2.03019   2.05757   2.08293
 Alpha virt. eigenvalues --    2.09111   2.09256   2.09792   2.12192   2.14098
 Alpha virt. eigenvalues --    2.15528   2.15584   2.17200   2.19751   2.20833
 Alpha virt. eigenvalues --    2.21576   2.22525   2.23381   2.24503   2.26441
 Alpha virt. eigenvalues --    2.26972   2.27242   2.27719   2.28046   2.29391
 Alpha virt. eigenvalues --    2.33301   2.35725   2.39155   2.39384   2.40817
 Alpha virt. eigenvalues --    2.42649   2.43076   2.45776   2.45994   2.46870
 Alpha virt. eigenvalues --    2.51623   2.51954   2.53354   2.53485   2.55138
 Alpha virt. eigenvalues --    2.56159   2.58701   2.58838   2.59764   2.59776
 Alpha virt. eigenvalues --    2.60682   2.61147   2.61719   2.62222   2.63349
 Alpha virt. eigenvalues --    2.63999   2.64478   2.66054   2.66794   2.67121
 Alpha virt. eigenvalues --    2.67374   2.68356   2.68872   2.68876   2.69372
 Alpha virt. eigenvalues --    2.69557   2.69907   2.70083   2.70281   2.73482
 Alpha virt. eigenvalues --    2.74771   2.74836   2.76066   2.77101   2.77577
 Alpha virt. eigenvalues --    2.78232   2.78455   2.78850   2.80822   2.82359
 Alpha virt. eigenvalues --    2.85535   2.85993   2.86737   2.87294   2.90966
 Alpha virt. eigenvalues --    2.91783   2.92195   2.93676   2.95232   2.95887
 Alpha virt. eigenvalues --    2.99270   2.99858   3.03165   3.05604   3.06852
 Alpha virt. eigenvalues --    3.07371   3.15988   3.16029   3.16647   3.19843
 Alpha virt. eigenvalues --    3.20017   3.23601   3.29134   3.29680   3.31610
 Alpha virt. eigenvalues --    3.35095   3.35458   3.35677   3.35858   3.38023
 Alpha virt. eigenvalues --    3.39887   3.41413   3.44960   3.45362   3.47993
 Alpha virt. eigenvalues --    3.48278   3.50401   3.53073   3.57439   3.58649
 Alpha virt. eigenvalues --    3.61466   3.62620   3.63208   3.63698   3.65910
 Alpha virt. eigenvalues --    3.67534   3.67678   4.00384   4.00442   4.01859
 Alpha virt. eigenvalues --    4.02182   4.16133   4.16678   4.17360   4.21240
 Alpha virt. eigenvalues --    4.22396   4.22517   4.25488   4.38492   4.62290
 Alpha virt. eigenvalues --    4.79179   4.79740   4.80562   4.82562   4.83014
 Alpha virt. eigenvalues --   23.39176  23.54541  23.69085  23.77378  23.80419
 Alpha virt. eigenvalues --   23.81537  23.86099  23.89067  23.89154  23.92210
 Alpha virt. eigenvalues --   23.97563  23.98365  24.09049  24.09932  24.10529
 Alpha virt. eigenvalues --   24.12220  24.13779  24.14375  24.15775  24.15810
 Alpha virt. eigenvalues --   24.20452  24.20497
          Condensed to atoms (all electrons):
 Mulliken charges:
               1
     1  C    0.000000
     2  C    0.000000
     3  C    0.000000
     4  C    0.000000
     5  C    0.000000
     6  C    0.000000
     7  C    0.000000
     8  C    0.000000
     9  C    0.000000
    10  C    0.000000
    11  H    0.000000
    12  H    0.000000
    13  H    0.000000
    14  H    0.000000
    15  H    0.000000
    16  H    0.000000
    17  C    0.000000
    18  C    0.000000
    19  C    0.000000
    20  C    0.000000
    21  H    0.000000
    22  H    0.000000
    23  C    0.000000
    24  C    0.000000
    25  C    0.000000
    26  C    0.000000
    27  H    0.000000
    28  H    0.000000
    29  C    0.000000
    30  C    0.000000
    31  C    0.000000
    32  C    0.000000
    33  H    0.000000
    34  H    0.000000
    35  H    0.000000
    36  H    0.000000
    37  C   -0.059168
    38  C   -0.059168
    39  C   -0.055977
    40  C   -0.055977
    41  C   -0.092198
    42  C   -0.092198
    43  C   -0.016525
    44  C   -0.054498
    45  C   -0.016525
    46  C   -0.054498
    47  H    0.082122
    48  H    0.074853
    49  H    0.074853
    50  H    0.082122
    51  H    0.094847
    52  H    0.094847
    53  C   -0.020341
    54  C   -0.054498
    55  C   -0.020341
    56  C   -0.054498
    57  H    0.073428
    58  H    0.073428
    59  C   -0.016525
    60  C   -0.059168
    61  C   -0.016525
    62  C   -0.059168
    63  H    0.074853
    64  H    0.074853
    65  C   -0.055977
    66  C   -0.092198
    67  C   -0.055977
    68  C   -0.092198
    69  H    0.082122
    70  H    0.094847
    71  H    0.094847
    72  H    0.082122
 Sum of Mulliken charges =   0.00000
 Mulliken charges with hydrogens summed into heavy atoms:
               1
     1  C    0.000000
     2  C    0.000000
     3  C    0.000000
     4  C    0.000000
     5  C    0.000000
     6  C    0.000000
     7  C    0.000000
     8  C    0.000000
     9  C    0.000000
    10  C    0.000000
    17  C    0.000000
    18  C    0.000000
    19  C    0.000000
    20  C    0.000000
    23  C    0.000000
    24  C    0.000000
    25  C    0.000000
    26  C    0.000000
    29  C    0.000000
    30  C    0.000000
    31  C    0.000000
    32  C    0.000000
    37  C   -0.059168
    38  C   -0.059168
    39  C    0.026144
    40  C    0.026144
    41  C    0.002649
    42  C    0.002649
    43  C    0.058328
    44  C   -0.054498
    45  C    0.058328
    46  C   -0.054498
    53  C    0.053087
    54  C   -0.054498
    55  C    0.053087
    56  C   -0.054498
    59  C    0.058328
    60  C   -0.059168
    61  C    0.058328
    62  C   -0.059168
    65  C    0.026144
    66  C    0.002649
    67  C    0.026144
    68  C    0.002649
         Mulliken charges condensed to fragments:
      1      0.000000
      2      0.000000
 Electronic spatial extent (au):  <R**2>=          16630.0278
 Charge=              0.0000 electrons
 Dipole moment (field-independent basis, Debye):
    X=              0.0000    Y=              0.0000    Z=              0.0000  Tot=              0.0000
 Quadrupole moment (field-independent basis, Debye-Ang):
   XX=           -136.3921   YY=           -110.7480   ZZ=           -109.0115
   XY=              0.0000   XZ=              0.0000   YZ=              0.0000
 Traceless Quadrupole moment (field-independent basis, Debye-Ang):
   XX=            -17.6749   YY=              7.9692   ZZ=              9.7057
   XY=              0.0000   XZ=              0.0000   YZ=              0.0000
 Octapole moment (field-independent basis, Debye-Ang**2):
  XXX=           1084.9922  YYY=            880.9952  ZZZ=              0.0000  XYY=            293.6651
  XXY=            361.6641  XXZ=              0.0000  XZZ=            289.0603  YZZ=            289.0603
  YYZ=              0.0000  XYZ=              0.0000
 Hexadecapole moment (field-independent basis, Debye-Ang**3):
 XXXX=          -5908.4439 YYYY=          -5788.8994 ZZZZ=         -10461.4324 XXXY=          -2877.0200
 XXXZ=              0.0000 YYYX=          -2336.0913 YYYZ=              0.0000 ZZZX=              0.0000
 ZZZY=              0.0000 XXYY=          -1994.1191 XXZZ=          -2974.4189 YYZZ=          -2735.7013
 XXYZ=              0.0000 YYXZ=              0.0000 ZZXY=           -766.4869
 N-N= 1.494327114189D+03 E-N=-4.953709180016D+03  KE= 8.433374905996D+02
 Symmetry A'   KE= 4.567052305803D+02
 Symmetry A"   KE= 3.866322600193D+02
 No NMR shielding tensors so no spin-rotation constants.
 Leave Link  601 at Wed Sep 27 17:15:38 2023, MaxMem=  3221225472 cpu:              19.0 elap:               0.5
 (Enter /home/center/opt/aarch64/apps/gaussian16/c01/g16/l122.exe)
 CPIOFr:  IOpCl= 0 IRwI=-1 IRwCP=  731 ICalc=  4 LCPTot=     1419224 Len1MO=     3708034 IndFrg=    19959394
 Restoring MOs from calculation   1 to rwf.
 CPIOFr:  IOpCl= 0 IRwI=-2 IRwCP=  731 ICalc=  0 LCPTot=     1419224 Len1MO=     3708034 IndFrg=     5127258
 Counterpoise corrected energy =   -1694.042168776016
                   BSSE energy =       0.000088993670
              sum of fragments =   -1694.039683044258
           complexation energy =      -1.62 kcal/mole (raw)
           complexation energy =      -1.56 kcal/mole (corrected)
 Leave Link  122 at Wed Sep 27 17:15:41 2023, MaxMem=  3221225472 cpu:               8.3 elap:               0.4
 (Enter /home/center/opt/aarch64/apps/gaussian16/c01/g16/l9999.exe)

 Test job not archived.
 1\1\GINC-FX0569\SP\RB3LYP\6-311G(d,p)\C44H28\Z40145W\27-Sep-2023\0\\#P
  TEST b3lyp/6-311G** EmpiricalDispersion=GD3 counterpoise=2\\pentacene
 _A1=0_A2=0_A3=45_p2\\0,1\C,0,-0.5039478476,0.5239478476,-3.6612755801\
 C,0,0.5239480325,-0.5039480325,-3.6612755629\C,0,-0.9861248463,1.00612
 48463,-4.9235927708\C,0,1.0061250889,-0.9861250889,-4.9235926697\C,0,-
 0.4963213507,0.5163213507,-6.096356521\C,0,0.5163216812,-0.4963216812,
 -6.0963564796\C,0,-0.9844684311,1.0044684311,-2.4533174875\C,0,-0.5044
 88426,0.524488426,-1.2140288145\C,0,1.0044685359,-0.9844685359,-2.4533
 173917\C,0,0.5244885437,-0.5044885437,-1.2140288362\H,0,-1.7533559667,
 1.7733559667,-4.9232600459\H,0,-1.7521866813,1.7721866813,-2.453928581
 5\H,0,1.7721859268,-1.7521859268,-2.4539284818\H,0,1.7733558421,-1.753
 3558421,-4.9232597785\H,0,0.8905568758,-0.8705568758,-7.0425276922\H,0
 ,-0.8705565046,0.8905565046,-7.042527775\C,0,-0.9848184961,1.004818496
 1,0.0099998782\C,0,-0.5044883957,0.5244883957,1.2340295553\C,0,1.00481
 85643,-0.9848185643,0.0099998696\C,0,0.5244885146,-0.5044885146,1.2340
 295261\H,0,-1.7524699697,1.7724699697,0.0099999205\H,0,1.772468921,-1.
 752468921,0.0099999641\C,0,-0.9844683048,1.0044683048,2.4733171385\C,0
 ,-0.5039477114,0.5239477114,3.681276331\C,0,1.0044684211,-0.9844684211
 ,2.4733170835\C,0,0.5239479079,-0.5039479079,3.6812763217\H,0,-1.75218
 65527,1.7721865527,2.4739285326\H,0,1.7721858092,-1.7521858092,2.47392
 83796\C,0,-0.9861245177,1.0061245177,4.9435920588\C,0,-0.4963209372,0.
 5163209372,6.116356633\C,0,1.0061247659,-0.9861247659,4.9435919377\C,0
 ,0.5163212637,-0.4963212637,6.1163566075\H,0,-1.7533556504,1.773355650
 4,4.9432601504\H,0,-0.8705567426,0.8905567426,7.0625274368\H,0,0.89055
 70967,-0.8705570967,7.0625272142\H,0,1.7733555414,-1.7533555414,4.9432
 599297\C,0,6.9960521524,0.5239478476,-3.6612755801\C,0,8.0239480325,-0
 .5039480325,-3.6612755629\C,0,6.5138751537,1.0061248463,-4.9235927708\
 C,0,8.5061250889,-0.9861250889,-4.9235926697\C,0,7.0036786493,0.516321
 3507,-6.096356521\C,0,8.0163216812,-0.4963216812,-6.0963564796\C,0,6.5
 155315689,1.0044684311,-2.4533174875\C,0,6.995511574,0.524488426,-1.21
 40288145\C,0,8.5044685359,-0.9844685359,-2.4533173917\C,0,8.0244885437
 ,-0.5044885437,-1.2140288362\H,0,5.7466440333,1.7733559667,-4.92326004
 59\H,0,5.7478133187,1.7721866813,-2.4539285815\H,0,9.2721859268,-1.752
 1859268,-2.4539284818\H,0,9.2733558421,-1.7533558421,-4.9232597785\H,0
 ,8.3905568758,-0.8705568758,-7.0425276922\H,0,6.6294434954,0.890556504
 6,-7.042527775\C,0,6.5151815039,1.0048184961,0.0099998782\C,0,6.995511
 6043,0.5244883957,1.2340295553\C,0,8.5048185643,-0.9848185643,0.009999
 8696\C,0,8.0244885146,-0.5044885146,1.2340295261\H,0,5.7475300303,1.77
 24699697,0.0099999205\H,0,9.272468921,-1.752468921,0.0099999641\C,0,6.
 5155316952,1.0044683048,2.4733171385\C,0,6.9960522886,0.5239477114,3.6
 81276331\C,0,8.5044684211,-0.9844684211,2.4733170835\C,0,8.0239479079,
 -0.5039479079,3.6812763217\H,0,5.7478134473,1.7721865527,2.4739285326\
 H,0,9.2721858092,-1.7521858092,2.4739283796\C,0,6.5138754823,1.0061245
 177,4.9435920588\C,0,7.0036790628,0.5163209372,6.116356633\C,0,8.50612
 47659,-0.9861247659,4.9435919377\C,0,8.0163212637,-0.4963212637,6.1163
 566075\H,0,5.7466443496,1.7733556504,4.9432601504\H,0,6.6294432574,0.8
 905567426,7.0625274368\H,0,8.3905570967,-0.8705570967,7.0625272142\H,0
 ,9.2733555414,-1.7533555414,4.9432599297\\Version=Fujitsu-Arm-G16RevC.
 01\State=1-A'\HF=-847.0198415\RMSD=3.176e-09\Dipole=0.000013,-0.000013
 ,0.\Quadrupole=-7.9754821,-6.3753079,14.35079,-18.2267041,0.,0.\PG=CS 
 [SG(C4H4),X(C40H24)]\\@


 K N O W I N G  IS A BARRIER WHICH PREVENTS LEARNING

                     -- TEACHING OF THE BENE GESSERIT
 Job cpu time:       0 days  2 hours 48 minutes 50.4 seconds.
 Elapsed time:       0 days  0 hours  4 minutes 25.9 seconds.
 File lengths (MBytes):  RWF=    718 Int=      0 D2E=      0 Chk=    208 Scr=      1
 Normal termination of Gaussian 16 at Wed Sep 27 17:15:47 2023.
