 Entering Gaussian System, Link 0=g16
 Initial command:
 /home/center/opt/aarch64/apps/gaussian16/c01/g16/l1.exe "/data/tmp/Gtmp/1006975/Gau-48.inp" -scrdir="/data/tmp/Gtmp/1006975/"
 Entering Link 1 = /home/center/opt/aarch64/apps/gaussian16/c01/g16/l1.exe PID=        49.
  
 Copyright (c) 1988-2019, Gaussian, Inc.  All Rights Reserved.
  
 This is part of the Gaussian(R) 16 program.  It is based on
 the Gaussian(R) 09 system (copyright 2009, Gaussian, Inc.),
 the Gaussian(R) 03 system (copyright 2003, Gaussian, Inc.),
 the Gaussian(R) 98 system (copyright 1998, Gaussian, Inc.),
 the Gaussian(R) 94 system (copyright 1995, Gaussian, Inc.),
 the Gaussian 92(TM) system (copyright 1992, Gaussian, Inc.),
 the Gaussian 90(TM) system (copyright 1990, Gaussian, Inc.),
 the Gaussian 88(TM) system (copyright 1988, Gaussian, Inc.),
 the Gaussian 86(TM) system (copyright 1986, Carnegie Mellon
 University), and the Gaussian 82(TM) system (copyright 1983,
 Carnegie Mellon University). Gaussian is a federally registered
 trademark of Gaussian, Inc.
  
 This software contains proprietary and confidential information,
 including trade secrets, belonging to Gaussian, Inc.
  
 This software is provided under written license and may be
 used, copied, transmitted, or stored only in accord with that
 written license.
  
 The following legend is applicable only to US Government
 contracts under FAR:
  
                    RESTRICTED RIGHTS LEGEND
  
 Use, reproduction and disclosure by the US Government is
 subject to restrictions as set forth in subparagraphs (a)
 and (c) of the Commercial Computer Software - Restricted
 Rights clause in FAR 52.227-19.
  
 Gaussian, Inc.
 340 Quinnipiac St., Bldg. 40, Wallingford CT 06492
  
  
 ---------------------------------------------------------------
 Warning -- This program may not be used in any manner that
 competes with the business of Gaussian, Inc. or will provide
 assistance to any competitor of Gaussian, Inc.  The licensee
 of this program is prohibited from giving any competitor of
 Gaussian, Inc. access to this program.  By using this program,
 the user acknowledges that Gaussian, Inc. is engaged in the
 business of creating and licensing software in the field of
 computational chemistry and represents and warrants to the
 licensee that it is not a competitor of Gaussian, Inc. and that
 it will not use this program in any manner prohibited above.
 ---------------------------------------------------------------
  

 Cite this work as:
 Gaussian 16, Revision C.01,
 M. J. Frisch, G. W. Trucks, H. B. Schlegel, G. E. Scuseria, 
 M. A. Robb, J. R. Cheeseman, G. Scalmani, V. Barone, 
 G. A. Petersson, H. Nakatsuji, X. Li, M. Caricato, A. V. Marenich, 
 J. Bloino, B. G. Janesko, R. Gomperts, B. Mennucci, H. P. Hratchian, 
 J. V. Ortiz, A. F. Izmaylov, J. L. Sonnenberg, D. Williams-Young, 
 F. Ding, F. Lipparini, F. Egidi, J. Goings, B. Peng, A. Petrone, 
 T. Henderson, D. Ranasinghe, V. G. Zakrzewski, J. Gao, N. Rega, 
 G. Zheng, W. Liang, M. Hada, M. Ehara, K. Toyota, R. Fukuda, 
 J. Hasegawa, M. Ishida, T. Nakajima, Y. Honda, O. Kitao, H. Nakai, 
 T. Vreven, K. Throssell, J. A. Montgomery, Jr., J. E. Peralta, 
 F. Ogliaro, M. J. Bearpark, J. J. Heyd, E. N. Brothers, K. N. Kudin, 
 V. N. Staroverov, T. A. Keith, R. Kobayashi, J. Normand, 
 K. Raghavachari, A. P. Rendell, J. C. Burant, S. S. Iyengar, 
 J. Tomasi, M. Cossi, J. M. Millam, M. Klene, C. Adamo, R. Cammi, 
 J. W. Ochterski, R. L. Martin, K. Morokuma, O. Farkas, 
 J. B. Foresman, and D. J. Fox, Gaussian, Inc., Wallingford CT, 2019.
 
 ************************************************
 Gaussian 16:  Fujitsu-Arm-G16RevC.01  3-Jul-2019
                   27-Sep-2023 
 ************************************************
 %mem=24GB
 %nproc=42
 Will use up to   42 processors via shared memory.
 -------------------------------------------------------------
 #P TEST b3lyp/6-311G** EmpiricalDispersion=GD3 counterpoise=2
 -------------------------------------------------------------
 1/38=1,62=2,172=1/1;
 2/12=2,17=6,18=5,40=1/2;
 1/38=1,53=2,62=2,63=1/22;
 3/5=4,6=6,7=101,11=2,25=1,30=1,74=-5,124=31/1,2,3;
 4//1;
 5/5=2,38=5/2;
 6/7=2,8=2,9=2,10=2,28=1/1;
 1/53=2,62=2,63=1/22;
 3/5=7,6=11,7=101,11=2,25=1,30=1,74=-5,82=7,124=31/1,2,3;
 4//1;
 5/5=2,38=5/2;
 6/7=2,8=2,9=2,10=2,28=1/1;
 1/53=2,62=2,63=1/22(-4);
 99/5=1,9=1/99;
 Leave Link    1 at Wed Sep 27 16:57:17 2023, MaxMem=  3221225472 cpu:               6.6 elap:               0.2
 (Enter /home/center/opt/aarch64/apps/gaussian16/c01/g16/l101.exe)
 ----------------------------
 pentacene_A1=0_A2=0_A3=45_t1
 ----------------------------
 Symbolic Z-matrix:
 Charge =  0 Multiplicity = 1 in supermolecule
 Charge =  0 Multiplicity = 1 in fragment      1.
 Charge =  0 Multiplicity = 1 in fragment      2.
 C(Fragment=1)        -0.50395   0.52395  -3.66128 
 C(Fragment=1)         0.52395  -0.50395  -3.66128 
 C(Fragment=1)        -0.98612   1.00612  -4.92359 
 C(Fragment=1)         1.00613  -0.98613  -4.92359 
 C(Fragment=1)        -0.49632   0.51632  -6.09636 
 C(Fragment=1)         0.51632  -0.49632  -6.09636 
 C(Fragment=1)        -0.98447   1.00447  -2.45332 
 C(Fragment=1)        -0.50449   0.52449  -1.21403 
 C(Fragment=1)         1.00447  -0.98447  -2.45332 
 C(Fragment=1)         0.52449  -0.50449  -1.21403 
 H(Fragment=1)        -1.75336   1.77336  -4.92326 
 H(Fragment=1)        -1.75219   1.77219  -2.45393 
 H(Fragment=1)         1.77219  -1.75219  -2.45393 
 H(Fragment=1)         1.77336  -1.75336  -4.92326 
 H(Fragment=1)         0.89056  -0.87056  -7.04253 
 H(Fragment=1)        -0.87056   0.89056  -7.04253 
 C(Fragment=1)        -0.98482   1.00482   0.01 
 C(Fragment=1)        -0.50449   0.52449   1.23403 
 C(Fragment=1)         1.00482  -0.98482   0.01 
 C(Fragment=1)         0.52449  -0.50449   1.23403 
 H(Fragment=1)        -1.75247   1.77247   0.01 
 H(Fragment=1)         1.77247  -1.75247   0.01 
 C(Fragment=1)        -0.98447   1.00447   2.47332 
 C(Fragment=1)        -0.50395   0.52395   3.68128 
 C(Fragment=1)         1.00447  -0.98447   2.47332 
 C(Fragment=1)         0.52395  -0.50395   3.68128 
 H(Fragment=1)        -1.75219   1.77219   2.47393 
 H(Fragment=1)         1.77219  -1.75219   2.47393 
 C(Fragment=1)        -0.98612   1.00612   4.94359 
 C(Fragment=1)        -0.49632   0.51632   6.11636 
 C(Fragment=1)         1.00612  -0.98612   4.94359 
 C(Fragment=1)         0.51632  -0.49632   6.11636 
 H(Fragment=1)        -1.75336   1.77336   4.94326 
 H(Fragment=1)        -0.87056   0.89056   7.06253 
 H(Fragment=1)         0.89056  -0.87056   7.06253 
 H(Fragment=1)         1.77336  -1.75336   4.94326 
 C(Fragment=2)         4.52395   4.02395  -3.66128 
 C(Fragment=2)         3.49605   2.99605  -3.66128 
 C(Fragment=2)         5.00612   4.50612  -4.92359 
 C(Fragment=2)         3.01387   2.51387  -4.92359 
 C(Fragment=2)         4.51632   4.01632  -6.09636 
 C(Fragment=2)         3.50368   3.00368  -6.09636 
 C(Fragment=2)         5.00447   4.50447  -2.45332 
 C(Fragment=2)         4.52449   4.02449  -1.21403 
 C(Fragment=2)         3.01553   2.51553  -2.45332 
 C(Fragment=2)         3.49551   2.99551  -1.21403 
 H(Fragment=2)         5.77336   5.27336  -4.92326 
 H(Fragment=2)         5.77219   5.27219  -2.45393 
 H(Fragment=2)         2.24781   1.74781  -2.45393 
 H(Fragment=2)         2.24664   1.74664  -4.92326 
 H(Fragment=2)         3.12944   2.62944  -7.04253 
 H(Fragment=2)         4.89056   4.39056  -7.04253 
 C(Fragment=2)         5.00482   4.50482   0.01 
 C(Fragment=2)         4.52449   4.02449   1.23403 
 C(Fragment=2)         3.01518   2.51518   0.01 
 C(Fragment=2)         3.49551   2.99551   1.23403 
 H(Fragment=2)         5.77247   5.27247   0.01 
 H(Fragment=2)         2.24753   1.74753   0.01 
 C(Fragment=2)         5.00447   4.50447   2.47332 
 C(Fragment=2)         4.52395   4.02395   3.68128 
 C(Fragment=2)         3.01553   2.51553   2.47332 
 C(Fragment=2)         3.49605   2.99605   3.68128 
 H(Fragment=2)         5.77219   5.27219   2.47393 
 H(Fragment=2)         2.24781   1.74781   2.47393 
 C(Fragment=2)         5.00612   4.50612   4.94359 
 C(Fragment=2)         4.51632   4.01632   6.11636 
 C(Fragment=2)         3.01388   2.51388   4.94359 
 C(Fragment=2)         3.50368   3.00368   6.11636 
 H(Fragment=2)         5.77336   5.27336   4.94326 
 H(Fragment=2)         4.89056   4.39056   7.06253 
 H(Fragment=2)         3.12944   2.62944   7.06253 
 H(Fragment=2)         2.24664   1.74664   4.94326 
 
 ITRead=  0  0  0  0  0  0  0  0  0  0  0  0  0  0  0  0  0  0  0  0
 ITRead=  0  0  0  0  0  0  0  0  0  0  0  0  0  0  0  0  0  0  0  0
 ITRead=  0  0  0  0  0  0  0  0  0  0  0  0  0  0  0  0  0  0  0  0
 ITRead=  0  0  0  0  0  0  0  0  0  0  0  0
 MicOpt= -1 -1 -1 -1 -1 -1 -1 -1 -1 -1 -1 -1 -1 -1 -1 -1 -1 -1 -1 -1
 MicOpt= -1 -1 -1 -1 -1 -1 -1 -1 -1 -1 -1 -1 -1 -1 -1 -1 -1 -1 -1 -1
 MicOpt= -1 -1 -1 -1 -1 -1 -1 -1 -1 -1 -1 -1 -1 -1 -1 -1 -1 -1 -1 -1
 MicOpt= -1 -1 -1 -1 -1 -1 -1 -1 -1 -1 -1 -1
 NAtoms=     72 NQM=       72 NQMF=       0 NMMI=      0 NMMIF=      0
                NMic=       0 NMicF=      0.
                    Isotopes and Nuclear Properties:
 (Nuclear quadrupole moments (NQMom) in fm**2, nuclear magnetic moments (NMagM)
  in nuclear magnetons)

  Atom         1           2           3           4           5           6           7           8           9          10
 IAtWgt=          12          12          12          12          12          12          12          12          12          12
 AtmWgt=  12.0000000  12.0000000  12.0000000  12.0000000  12.0000000  12.0000000  12.0000000  12.0000000  12.0000000  12.0000000
 NucSpn=           0           0           0           0           0           0           0           0           0           0
 AtZEff=   0.0000000   0.0000000   0.0000000   0.0000000   0.0000000   0.0000000   0.0000000   0.0000000   0.0000000   0.0000000
 NQMom=    0.0000000   0.0000000   0.0000000   0.0000000   0.0000000   0.0000000   0.0000000   0.0000000   0.0000000   0.0000000
 NMagM=    0.0000000   0.0000000   0.0000000   0.0000000   0.0000000   0.0000000   0.0000000   0.0000000   0.0000000   0.0000000
 AtZNuc=   6.0000000   6.0000000   6.0000000   6.0000000   6.0000000   6.0000000   6.0000000   6.0000000   6.0000000   6.0000000

  Atom        11          12          13          14          15          16          17          18          19          20
 IAtWgt=           1           1           1           1           1           1          12          12          12          12
 AtmWgt=   1.0078250   1.0078250   1.0078250   1.0078250   1.0078250   1.0078250  12.0000000  12.0000000  12.0000000  12.0000000
 NucSpn=           1           1           1           1           1           1           0           0           0           0
 AtZEff=   0.0000000   0.0000000   0.0000000   0.0000000   0.0000000   0.0000000   0.0000000   0.0000000   0.0000000   0.0000000
 NQMom=    0.0000000   0.0000000   0.0000000   0.0000000   0.0000000   0.0000000   0.0000000   0.0000000   0.0000000   0.0000000
 NMagM=    2.7928460   2.7928460   2.7928460   2.7928460   2.7928460   2.7928460   0.0000000   0.0000000   0.0000000   0.0000000
 AtZNuc=   1.0000000   1.0000000   1.0000000   1.0000000   1.0000000   1.0000000   6.0000000   6.0000000   6.0000000   6.0000000

  Atom        21          22          23          24          25          26          27          28          29          30
 IAtWgt=           1           1          12          12          12          12           1           1          12          12
 AtmWgt=   1.0078250   1.0078250  12.0000000  12.0000000  12.0000000  12.0000000   1.0078250   1.0078250  12.0000000  12.0000000
 NucSpn=           1           1           0           0           0           0           1           1           0           0
 AtZEff=   0.0000000   0.0000000   0.0000000   0.0000000   0.0000000   0.0000000   0.0000000   0.0000000   0.0000000   0.0000000
 NQMom=    0.0000000   0.0000000   0.0000000   0.0000000   0.0000000   0.0000000   0.0000000   0.0000000   0.0000000   0.0000000
 NMagM=    2.7928460   2.7928460   0.0000000   0.0000000   0.0000000   0.0000000   2.7928460   2.7928460   0.0000000   0.0000000
 AtZNuc=   1.0000000   1.0000000   6.0000000   6.0000000   6.0000000   6.0000000   1.0000000   1.0000000   6.0000000   6.0000000

  Atom        31          32          33          34          35          36          37          38          39          40
 IAtWgt=          12          12           1           1           1           1          12          12          12          12
 AtmWgt=  12.0000000  12.0000000   1.0078250   1.0078250   1.0078250   1.0078250  12.0000000  12.0000000  12.0000000  12.0000000
 NucSpn=           0           0           1           1           1           1           0           0           0           0
 AtZEff=   0.0000000   0.0000000   0.0000000   0.0000000   0.0000000   0.0000000   0.0000000   0.0000000   0.0000000   0.0000000
 NQMom=    0.0000000   0.0000000   0.0000000   0.0000000   0.0000000   0.0000000   0.0000000   0.0000000   0.0000000   0.0000000
 NMagM=    0.0000000   0.0000000   2.7928460   2.7928460   2.7928460   2.7928460   0.0000000   0.0000000   0.0000000   0.0000000
 AtZNuc=   6.0000000   6.0000000   1.0000000   1.0000000   1.0000000   1.0000000   6.0000000   6.0000000   6.0000000   6.0000000

  Atom        41          42          43          44          45          46          47          48          49          50
 IAtWgt=          12          12          12          12          12          12           1           1           1           1
 AtmWgt=  12.0000000  12.0000000  12.0000000  12.0000000  12.0000000  12.0000000   1.0078250   1.0078250   1.0078250   1.0078250
 NucSpn=           0           0           0           0           0           0           1           1           1           1
 AtZEff=   0.0000000   0.0000000   0.0000000   0.0000000   0.0000000   0.0000000   0.0000000   0.0000000   0.0000000   0.0000000
 NQMom=    0.0000000   0.0000000   0.0000000   0.0000000   0.0000000   0.0000000   0.0000000   0.0000000   0.0000000   0.0000000
 NMagM=    0.0000000   0.0000000   0.0000000   0.0000000   0.0000000   0.0000000   2.7928460   2.7928460   2.7928460   2.7928460
 AtZNuc=   6.0000000   6.0000000   6.0000000   6.0000000   6.0000000   6.0000000   1.0000000   1.0000000   1.0000000   1.0000000

  Atom        51          52          53          54          55          56          57          58          59          60
 IAtWgt=           1           1          12          12          12          12           1           1          12          12
 AtmWgt=   1.0078250   1.0078250  12.0000000  12.0000000  12.0000000  12.0000000   1.0078250   1.0078250  12.0000000  12.0000000
 NucSpn=           1           1           0           0           0           0           1           1           0           0
 AtZEff=   0.0000000   0.0000000   0.0000000   0.0000000   0.0000000   0.0000000   0.0000000   0.0000000   0.0000000   0.0000000
 NQMom=    0.0000000   0.0000000   0.0000000   0.0000000   0.0000000   0.0000000   0.0000000   0.0000000   0.0000000   0.0000000
 NMagM=    2.7928460   2.7928460   0.0000000   0.0000000   0.0000000   0.0000000   2.7928460   2.7928460   0.0000000   0.0000000
 AtZNuc=   1.0000000   1.0000000   6.0000000   6.0000000   6.0000000   6.0000000   1.0000000   1.0000000   6.0000000   6.0000000

  Atom        61          62          63          64          65          66          67          68          69          70
 IAtWgt=          12          12           1           1          12          12          12          12           1           1
 AtmWgt=  12.0000000  12.0000000   1.0078250   1.0078250  12.0000000  12.0000000  12.0000000  12.0000000   1.0078250   1.0078250
 NucSpn=           0           0           1           1           0           0           0           0           1           1
 AtZEff=   0.0000000   0.0000000   0.0000000   0.0000000   0.0000000   0.0000000   0.0000000   0.0000000   0.0000000   0.0000000
 NQMom=    0.0000000   0.0000000   0.0000000   0.0000000   0.0000000   0.0000000   0.0000000   0.0000000   0.0000000   0.0000000
 NMagM=    0.0000000   0.0000000   2.7928460   2.7928460   0.0000000   0.0000000   0.0000000   0.0000000   2.7928460   2.7928460
 AtZNuc=   6.0000000   6.0000000   1.0000000   1.0000000   6.0000000   6.0000000   6.0000000   6.0000000   1.0000000   1.0000000

  Atom        71          72
 IAtWgt=           1           1
 AtmWgt=   1.0078250   1.0078250
 NucSpn=           1           1
 AtZEff=   0.0000000   0.0000000
 NQMom=    0.0000000   0.0000000
 NMagM=    2.7928460   2.7928460
 AtZNuc=   1.0000000   1.0000000
 Leave Link  101 at Wed Sep 27 16:57:19 2023, MaxMem=  3221225472 cpu:               1.0 elap:               0.1
 (Enter /home/center/opt/aarch64/apps/gaussian16/c01/g16/l202.exe)
 Stoichiometry    C44H28
 Framework group  CS[SG(C4H4),X(C40H24)]
 Deg. of freedom   109
 Full point group                 CS      NOp   2
 Largest Abelian subgroup         CS      NOp   2
 Largest concise Abelian subgroup CS      NOp   2
                         Standard orientation:                         
 ---------------------------------------------------------------------
 Center     Atomic      Atomic             Coordinates (Angstroms)
 Number     Number       Type             X           Y           Z
 ---------------------------------------------------------------------
      1          6           0        0.903609   -2.651650    3.671276
      2          6           0       -0.550056   -2.651650    3.671276
      3          6           0        1.585510   -2.651650    4.933593
      4          6           0       -1.231957   -2.651650    4.933593
      5          6           0        0.892823   -2.651650    6.106357
      6          6           0       -0.539270   -2.651650    6.106357
      7          6           0        1.583167   -2.651650    2.463318
      8          6           0        0.904373   -2.651650    1.224029
      9          6           0       -1.229614   -2.651650    2.463317
     10          6           0       -0.550820   -2.651650    1.224029
     11          1           0        2.670539   -2.651650    4.933260
     12          1           0        2.668885   -2.651650    2.463929
     13          1           0       -2.315330   -2.651650    2.463929
     14          1           0       -2.316985   -2.651650    4.933260
     15          1           0       -1.068519   -2.651650    7.052528
     16          1           0        1.422072   -2.651650    7.052528
     17          6           0        1.583663   -2.651650    0.000000
     18          6           0        0.904373   -2.651650   -1.224029
     19          6           0       -1.230109   -2.651650    0.000000
     20          6           0       -0.550820   -2.651650   -1.224029
     21          1           0        2.669286   -2.651650    0.000000
     22          1           0       -2.315731   -2.651650    0.000000
     23          6           0        1.583167   -2.651650   -2.463318
     24          6           0        0.903609   -2.651650   -3.671276
     25          6           0       -1.229614   -2.651650   -2.463317
     26          6           0       -0.550056   -2.651650   -3.671276
     27          1           0        2.668885   -2.651650   -2.463929
     28          1           0       -2.315330   -2.651650   -2.463929
     29          6           0        1.585510   -2.651650   -4.933593
     30          6           0        0.892823   -2.651650   -6.106357
     31          6           0       -1.231957   -2.651650   -4.933593
     32          6           0       -0.539270   -2.651650   -6.106357
     33          1           0        2.670539   -2.651650   -4.933260
     34          1           0        1.422072   -2.651650   -7.052528
     35          1           0       -1.068519   -2.651650   -7.052528
     36          1           0       -2.316985   -2.651650   -4.933260
     37          6           0       -0.176777    3.378482    3.671276
     38          6           0       -0.176777    1.924818    3.671276
     39          6           0       -0.176777    4.060384    4.933593
     40          6           0       -0.176777    1.242917    4.933593
     41          6           0       -0.176777    3.367697    6.106357
     42          6           0       -0.176777    1.935603    6.106357
     43          6           0       -0.176777    4.058041    2.463318
     44          6           0       -0.176777    3.379247    1.224029
     45          6           0       -0.176777    1.245260    2.463317
     46          6           0       -0.176777    1.924054    1.224029
     47          1           0       -0.176777    5.145412    4.933260
     48          1           0       -0.176777    5.143759    2.463929
     49          1           0       -0.176777    0.159543    2.463929
     50          1           0       -0.176777    0.157889    4.933260
     51          1           0       -0.176777    1.406355    7.052528
     52          1           0       -0.176777    3.896945    7.052528
     53          6           0       -0.176777    4.058536    0.000000
     54          6           0       -0.176777    3.379247   -1.224029
     55          6           0       -0.176777    1.244765    0.000000
     56          6           0       -0.176777    1.924054   -1.224029
     57          1           0       -0.176777    5.144159    0.000000
     58          1           0       -0.176777    0.159143    0.000000
     59          6           0       -0.176777    4.058041   -2.463318
     60          6           0       -0.176777    3.378482   -3.671276
     61          6           0       -0.176777    1.245260   -2.463317
     62          6           0       -0.176777    1.924818   -3.671276
     63          1           0       -0.176777    5.143759   -2.463929
     64          1           0       -0.176777    0.159543   -2.463929
     65          6           0       -0.176777    4.060384   -4.933593
     66          6           0       -0.176777    3.367697   -6.106357
     67          6           0       -0.176777    1.242917   -4.933593
     68          6           0       -0.176777    1.935603   -6.106357
     69          1           0       -0.176777    5.145412   -4.933260
     70          1           0       -0.176777    3.896945   -7.052528
     71          1           0       -0.176777    1.406355   -7.052528
     72          1           0       -0.176777    0.157889   -4.933260
 ---------------------------------------------------------------------
 Rotational constants (GHZ):           0.1077057           0.0563744           0.0391980
 Leave Link  202 at Wed Sep 27 16:57:21 2023, MaxMem=  3221225472 cpu:               0.6 elap:               0.0
 (Enter /home/center/opt/aarch64/apps/gaussian16/c01/g16/l122.exe)
 Counterpoise: doing full-system calculation.
 Leave Link  122 at Wed Sep 27 16:57:23 2023, MaxMem=  3221225472 cpu:               0.2 elap:               0.0
 (Enter /home/center/opt/aarch64/apps/gaussian16/c01/g16/l301.exe)
 Standard basis: 6-311G(d,p) (5D, 7F)
 Ernie: Thresh=  0.10000D-02 Tol=  0.10000D-05 Strict=F.
 There are   528 symmetry adapted cartesian basis functions of A'  symmetry.
 There are   476 symmetry adapted cartesian basis functions of A"  symmetry.
 There are   504 symmetry adapted basis functions of A'  symmetry.
 There are   456 symmetry adapted basis functions of A"  symmetry.
   960 basis functions,  1632 primitive gaussians,  1004 cartesian basis functions
   146 alpha electrons      146 beta electrons
       nuclear repulsion energy      4627.4139256255 Hartrees.
 IExCor=  402 DFT=T Ex+Corr=B3LYP ExCW=0 ScaHFX=  0.200000
 ScaDFX=  0.800000  0.720000  1.000000  0.810000 ScalE2=  1.000000  1.000000
 IRadAn=      5 IRanWt=     -1 IRanGd=            0 ICorTp=0 IEmpDi=131
 NAtoms=   72 NActive=   72 NUniq=   40 SFac= 3.24D+00 NAtFMM=   60 NAOKFM=T Big=F
 Integral buffers will be    131072 words long.
 Raffenetti 2 integral format.
 Two-electron integral symmetry is turned on.
 R6Disp:  Grimme-D3 Dispersion energy=       -0.0808033416 Hartrees.
 Nuclear repulsion after empirical dispersion term =     4627.3331222840 Hartrees.
 Leave Link  301 at Wed Sep 27 16:57:26 2023, MaxMem=  3221225472 cpu:               2.0 elap:               0.1
 (Enter /home/center/opt/aarch64/apps/gaussian16/c01/g16/l302.exe)
 NPDir=0 NMtPBC=     1 NCelOv=     1 NCel=       1 NClECP=     1 NCelD=      1
         NCelK=      1 NCelE2=     1 NClLst=     1 CellRange=     0.0.
 One-electron integrals computed using PRISM.
 One-electron integral symmetry used in STVInt
 NBasis=   960 RedAO= T EigKep=  3.81D-05  NBF=   504   456
 NBsUse=   960 1.00D-06 EigRej= -1.00D+00 NBFU=   504   456
 Precomputing XC quadrature grid using
 IXCGrd= 4 IRadAn=           5 IRanWt=          -1 IRanGd=           0 AccXCQ= 0.00D+00.
 Generated NRdTot=       0 NPtTot=           0 NUsed=           0 NTot=          32
 NSgBfM=   991   989   991   991   991 MxSgAt=    72 MxSgA2=    72.
 Leave Link  302 at Wed Sep 27 16:57:30 2023, MaxMem=  3221225472 cpu:              64.2 elap:               1.9
 (Enter /home/center/opt/aarch64/apps/gaussian16/c01/g16/l303.exe)
 DipDrv:  MaxL=1.
 Leave Link  303 at Wed Sep 27 16:57:33 2023, MaxMem=  3221225472 cpu:              13.7 elap:               0.4
 (Enter /home/center/opt/aarch64/apps/gaussian16/c01/g16/l401.exe)
 ExpMin= 1.03D-01 ExpMax= 4.56D+03 ExpMxC= 6.82D+02 IAcc=3 IRadAn=         5 AccDes= 0.00D+00
 Harris functional with IExCor=  402 and IRadAn=       5 diagonalized for initial guess.
 HarFok:  IExCor=  402 AccDes= 0.00D+00 IRadAn=         5 IDoV= 1 UseB2=F ITyADJ=14
 ICtDFT=  3500011 ScaDFX=  1.000000  1.000000  1.000000  1.000000
 FoFCou: FMM=F IPFlag=           0 FMFlag=      100000 FMFlg1=        2000
         NFxFlg=           0 DoJE=T BraDBF=F KetDBF=T FulRan=T
         wScrn=  0.000000 ICntrl=       500 IOpCl=  0 I1Cent=   200000004 NGrid=           0
         NMat0=    1 NMatS0=      1 NMatT0=    0 NMatD0=    1 NMtDS0=    0 NMtDT0=    0
 Petite list used in FoFCou.
 Harris En= -1694.13991687098    
 JPrj=0 DoOrth=F DoCkMO=F.
 Initial guess orbital symmetries:
       Occupied  (A") (A') (A") (A') (A') (A") (A') (A") (A") (A')
                 (A") (A') (A") (A') (A") (A') (A") (A') (A") (A')
                 (A") (A') (A") (A') (A') (A') (A') (A') (A") (A')
                 (A") (A') (A") (A') (A") (A') (A") (A') (A") (A')
                 (A') (A") (A') (A") (A') (A') (A") (A") (A') (A')
                 (A") (A") (A') (A') (A') (A') (A") (A") (A') (A')
                 (A") (A") (A") (A") (A') (A') (A') (A') (A") (A")
                 (A") (A") (A') (A') (A") (A") (A') (A') (A') (A')
                 (A') (A') (A") (A") (A") (A") (A") (A') (A") (A')
                 (A') (A') (A") (A") (A') (A') (A') (A') (A") (A")
                 (A') (A') (A") (A") (A") (A") (A') (A') (A') (A')
                 (A") (A") (A') (A') (A") (A") (A') (A') (A") (A")
                 (A") (A") (A') (A') (A') (A') (A") (A") (A') (A')
                 (A") (A") (A') (A') (A") (A") (A') (A') (A') (A')
                 (A") (A") (A") (A") (A') (A')
       Virtual   (A') (A') (A") (A") (A") (A") (A') (A') (A') (A')
                 (A") (A") (A') (A') (A") (A") (A') (A") (A') (A')
                 (A') (A') (A") (A') (A') (A") (A") (A') (A") (A")
                 (A') (A') (A") (A") (A') (A') (A") (A") (A") (A')
                 (A") (A') (A') (A') (A') (A") (A") (A') (A') (A')
                 (A') (A') (A") (A") (A') (A') (A") (A") (A') (A')
                 (A") (A") (A") (A") (A') (A') (A") (A') (A") (A")
                 (A') (A") (A') (A') (A") (A') (A") (A") (A') (A")
                 (A') (A') (A') (A') (A") (A') (A') (A") (A") (A')
                 (A") (A') (A") (A") (A') (A") (A') (A") (A") (A')
                 (A') (A') (A") (A") (A') (A") (A') (A") (A') (A')
                 (A') (A') (A") (A') (A') (A") (A") (A') (A") (A')
                 (A") (A') (A') (A") (A") (A') (A") (A') (A') (A")
                 (A') (A") (A") (A') (A") (A") (A") (A') (A') (A")
                 (A') (A') (A') (A") (A") (A') (A") (A') (A') (A')
                 (A') (A") (A') (A") (A') (A") (A') (A") (A") (A')
                 (A") (A") (A') (A') (A') (A") (A") (A") (A') (A')
                 (A') (A") (A') (A") (A') (A') (A") (A') (A") (A")
                 (A') (A") (A') (A") (A') (A") (A') (A') (A') (A')
                 (A") (A") (A') (A") (A') (A") (A') (A') (A") (A")
                 (A') (A") (A") (A') (A') (A') (A") (A") (A') (A')
                 (A") (A') (A') (A") (A") (A") (A') (A") (A") (A')
                 (A') (A") (A") (A") (A') (A') (A") (A') (A') (A')
                 (A') (A") (A') (A') (A") (A") (A') (A") (A") (A')
                 (A") (A") (A') (A') (A') (A") (A') (A") (A') (A")
                 (A') (A") (A") (A') (A") (A') (A') (A") (A') (A')
                 (A") (A') (A") (A") (A") (A') (A") (A') (A") (A')
                 (A") (A") (A') (A') (A") (A') (A") (A') (A") (A')
                 (A") (A') (A') (A") (A') (A") (A') (A") (A') (A")
                 (A') (A') (A") (A') (A") (A") (A') (A") (A") (A")
                 (A") (A') (A') (A') (A') (A') (A') (A") (A") (A')
                 (A") (A') (A") (A") (A") (A") (A') (A') (A') (A')
                 (A") (A') (A") (A') (A') (A") (A') (A") (A') (A")
                 (A") (A") (A') (A') (A") (A') (A") (A") (A') (A')
                 (A") (A') (A") (A') (A') (A") (A') (A") (A") (A')
                 (A') (A") (A') (A') (A") (A') (A') (A") (A') (A")
                 (A') (A') (A') (A') (A") (A") (A") (A") (A") (A")
                 (A') (A") (A") (A') (A") (A") (A') (A') (A') (A')
                 (A") (A") (A') (A') (A') (A') (A") (A') (A') (A")
                 (A") (A') (A') (A') (A") (A') (A") (A") (A") (A')
                 (A") (A') (A") (A') (A") (A') (A") (A') (A") (A')
                 (A') (A") (A') (A') (A') (A") (A') (A") (A") (A')
                 (A') (A') (A") (A') (A") (A') (A") (A') (A") (A')
                 (A") (A") (A") (A') (A') (A") (A") (A') (A") (A")
                 (A") (A') (A") (A') (A') (A') (A") (A') (A") (A")
                 (A') (A') (A') (A') (A") (A") (A") (A') (A") (A')
                 (A") (A') (A") (A') (A') (A") (A") (A') (A") (A")
                 (A') (A") (A') (A') (A') (A") (A") (A') (A") (A')
                 (A") (A') (A') (A') (A") (A') (A") (A") (A") (A')
                 (A") (A") (A') (A") (A") (A") (A") (A') (A') (A')
                 (A") (A") (A') (A') (A") (A') (A') (A') (A") (A")
                 (A') (A') (A') (A') (A") (A") (A") (A') (A") (A')
                 (A") (A') (A") (A") (A') (A") (A') (A') (A") (A')
                 (A') (A") (A') (A') (A") (A") (A") (A') (A") (A')
                 (A") (A") (A') (A') (A') (A") (A") (A') (A") (A")
                 (A") (A') (A') (A") (A') (A") (A') (A") (A') (A')
                 (A") (A') (A') (A") (A") (A') (A') (A') (A") (A")
                 (A") (A") (A') (A') (A") (A') (A") (A') (A') (A")
                 (A') (A") (A') (A') (A") (A') (A') (A') (A") (A')
                 (A') (A") (A") (A') (A") (A') (A") (A") (A') (A")
                 (A') (A') (A") (A") (A') (A') (A") (A') (A") (A')
                 (A") (A') (A') (A") (A') (A") (A') (A') (A") (A")
                 (A") (A') (A") (A') (A') (A") (A') (A") (A") (A')
                 (A") (A') (A') (A') (A') (A") (A') (A") (A') (A")
                 (A') (A") (A') (A") (A") (A') (A") (A") (A") (A')
                 (A') (A') (A") (A') (A') (A') (A') (A") (A") (A')
                 (A') (A") (A") (A') (A") (A") (A') (A') (A') (A")
                 (A') (A") (A") (A') (A') (A") (A") (A") (A') (A')
                 (A") (A') (A') (A") (A') (A") (A') (A") (A") (A")
                 (A') (A") (A') (A') (A') (A') (A") (A") (A") (A')
                 (A') (A") (A") (A') (A') (A") (A') (A") (A') (A")
                 (A") (A") (A') (A") (A') (A') (A') (A') (A") (A")
                 (A') (A') (A") (A") (A') (A') (A") (A') (A') (A")
                 (A') (A") (A") (A') (A") (A') (A") (A') (A') (A")
                 (A') (A") (A') (A") (A') (A") (A') (A') (A') (A')
                 (A") (A') (A") (A') (A") (A") (A') (A') (A") (A")
                 (A") (A') (A") (A') (A") (A") (A') (A") (A') (A")
                 (A') (A') (A") (A") (A') (A') (A') (A') (A") (A")
                 (A") (A") (A') (A') (A") (A") (A') (A') (A') (A')
                 (A") (A") (A") (A") (A') (A') (A') (A') (A") (A")
                 (A') (A') (A") (A") (A') (A') (A") (A') (A") (A')
                 (A') (A") (A') (A")
 The electronic state of the initial guess is 1-A'.
 Leave Link  401 at Wed Sep 27 16:57:38 2023, MaxMem=  3221225472 cpu:             106.6 elap:               2.7
 (Enter /home/center/opt/aarch64/apps/gaussian16/c01/g16/l502.exe)
 Integral symmetry usage will be decided dynamically.
 Closed shell SCF:
 Using DIIS extrapolation, IDIIS=  1040.
 NGot=  3221225472 LenX=  3219153746 LenY=  3218144726
 Requested convergence on RMS density matrix=1.00D-08 within 128 cycles.
 Requested convergence on MAX density matrix=1.00D-06.
 Requested convergence on             energy=1.00D-06.
 No special actions if energy rises.
 Fock matrices will be formed incrementally for  20 cycles.
 Integral accuracy reduced to 1.0D-05 until final iterations.

 Cycle   1  Pass 0  IDiag  1:
 FoFJK:  IHMeth= 1 ICntrl=       0 DoSepK=F KAlg= 0 I1Cent=           0 FoldK=F
 IRaf= 560000000 NMat=       1 IRICut=       1 DoRegI=T DoRafI=F ISym2E= 1 IDoP0=0 IntGTp=1.
 FoFCou: FMM=F IPFlag=           0 FMFlag=      100000 FMFlg1=        2000
         NFxFlg=           0 DoJE=F BraDBF=F KetDBF=F FulRan=T
         wScrn=  0.000000 ICntrl=         0 IOpCl=  0 I1Cent=           0 NGrid=           0
         NMat0=    1 NMatS0=      1 NMatT0=    0 NMatD0=    1 NMtDS0=    0 NMtDT0=    0
 Petite list used in FoFCou.
 E= -1693.17417783589    
 DIIS: error= 4.67D-02 at cycle   1 NSaved=   1.
 NSaved= 1 IEnMin= 1 EnMin= -1693.17417783589     IErMin= 1 ErrMin= 4.67D-02
 ErrMax= 4.67D-02  0.00D+00 EMaxC= 1.00D-01 BMatC= 8.99D-01 BMatP= 8.99D-01
 IDIUse=3 WtCom= 5.33D-01 WtEn= 4.67D-01
 Coeff-Com:  0.100D+01
 Coeff-En:   0.100D+01
 Coeff:      0.100D+01
 Gap=     0.065 Goal=   None    Shift=    0.000
 GapD=    0.065 DampG=0.500 DampE=0.500 DampFc=0.2500 IDamp=-1.
 Damping current iteration by 2.50D-01
 RMSDP=1.71D-03 MaxDP=8.40D-02              OVMax= 1.55D-01

 Cycle   2  Pass 0  IDiag  1:
 RMSU=  4.14D-04    CP:  9.82D-01
 E= -1693.48329502650     Delta-E=       -0.309117190607 Rises=F Damp=T
 DIIS: error= 2.73D-02 at cycle   2 NSaved=   2.
 NSaved= 2 IEnMin= 2 EnMin= -1693.48329502650     IErMin= 2 ErrMin= 2.73D-02
 ErrMax= 2.73D-02  0.00D+00 EMaxC= 1.00D-01 BMatC= 2.99D-01 BMatP= 8.99D-01
 IDIUse=3 WtCom= 7.27D-01 WtEn= 2.73D-01
 Coeff-Com: -0.121D+01 0.221D+01
 Coeff-En:   0.000D+00 0.100D+01
 Coeff:     -0.882D+00 0.188D+01
 Gap=     0.064 Goal=   None    Shift=    0.000
 RMSDP=6.92D-04 MaxDP=3.37D-02 DE=-3.09D-01 OVMax= 9.66D-02

 Cycle   3  Pass 0  IDiag  1:
 RMSU=  4.34D-04    CP:  9.57D-01  2.24D+00
 E= -1694.04904238154     Delta-E=       -0.565747355044 Rises=F Damp=F
 DIIS: error= 4.70D-03 at cycle   3 NSaved=   3.
 NSaved= 3 IEnMin= 3 EnMin= -1694.04904238154     IErMin= 3 ErrMin= 4.70D-03
 ErrMax= 4.70D-03  0.00D+00 EMaxC= 1.00D-01 BMatC= 1.15D-02 BMatP= 2.99D-01
 IDIUse=3 WtCom= 9.53D-01 WtEn= 4.70D-02
 Coeff-Com: -0.228D+00 0.483D+00 0.745D+00
 Coeff-En:   0.000D+00 0.000D+00 0.100D+01
 Coeff:     -0.217D+00 0.460D+00 0.757D+00
 Gap=     0.068 Goal=   None    Shift=    0.000
 RMSDP=2.36D-04 MaxDP=1.46D-02 DE=-5.66D-01 OVMax= 1.11D-01

 Cycle   4  Pass 0  IDiag  1:
 RMSU=  2.00D-04    CP:  9.58D-01  2.12D+00  7.34D-01
 E= -1694.04395764718     Delta-E=        0.005084734363 Rises=F Damp=F
 DIIS: error= 6.92D-03 at cycle   4 NSaved=   4.
 NSaved= 4 IEnMin= 3 EnMin= -1694.04904238154     IErMin= 3 ErrMin= 4.70D-03
 ErrMax= 6.92D-03  0.00D+00 EMaxC= 1.00D-01 BMatC= 1.42D-02 BMatP= 1.15D-02
 IDIUse=3 WtCom= 1.07D-01 WtEn= 8.93D-01
 Coeff-Com: -0.257D-01 0.916D-01 0.537D+00 0.397D+00
 Coeff-En:   0.000D+00 0.000D+00 0.573D+00 0.427D+00
 Coeff:     -0.275D-02 0.983D-02 0.569D+00 0.424D+00
 Gap=     0.064 Goal=   None    Shift=    0.000
 RMSDP=1.49D-04 MaxDP=1.05D-02 DE= 5.08D-03 OVMax= 9.43D-02

 Cycle   5  Pass 0  IDiag  1:
 RMSU=  7.48D-05    CP:  9.58D-01  2.11D+00  8.12D-01  3.79D-01
 E= -1694.05994057936     Delta-E=       -0.015982932183 Rises=F Damp=F
 DIIS: error= 2.33D-03 at cycle   5 NSaved=   5.
 NSaved= 5 IEnMin= 5 EnMin= -1694.05994057936     IErMin= 5 ErrMin= 2.33D-03
 ErrMax= 2.33D-03  0.00D+00 EMaxC= 1.00D-01 BMatC= 1.16D-03 BMatP= 1.15D-02
 IDIUse=3 WtCom= 9.77D-01 WtEn= 2.33D-02
 Coeff-Com: -0.164D-01 0.349D-01 0.247D+00 0.243D+00 0.492D+00
 Coeff-En:   0.000D+00 0.000D+00 0.000D+00 0.394D-01 0.961D+00
 Coeff:     -0.160D-01 0.341D-01 0.241D+00 0.238D+00 0.503D+00
 Gap=     0.065 Goal=   None    Shift=    0.000
 RMSDP=4.88D-05 MaxDP=3.63D-03 DE=-1.60D-02 OVMax= 3.41D-02

 Cycle   6  Pass 0  IDiag  1:
 RMSU=  2.67D-05    CP:  9.58D-01  2.14D+00  8.15D-01  4.82D-01  5.59D-01
 E= -1694.06095560775     Delta-E=       -0.001015028392 Rises=F Damp=F
 DIIS: error= 1.19D-03 at cycle   6 NSaved=   6.
 NSaved= 6 IEnMin= 6 EnMin= -1694.06095560775     IErMin= 6 ErrMin= 1.19D-03
 ErrMax= 1.19D-03  0.00D+00 EMaxC= 1.00D-01 BMatC= 2.79D-04 BMatP= 1.16D-03
 IDIUse=3 WtCom= 9.88D-01 WtEn= 1.19D-02
 Coeff-Com: -0.821D-02 0.121D-01 0.103D+00 0.119D+00 0.372D+00 0.402D+00
 Coeff-En:   0.000D+00 0.000D+00 0.000D+00 0.000D+00 0.210D+00 0.790D+00
 Coeff:     -0.812D-02 0.119D-01 0.102D+00 0.118D+00 0.370D+00 0.407D+00
 Gap=     0.065 Goal=   None    Shift=    0.000
 RMSDP=2.17D-05 MaxDP=1.67D-03 DE=-1.02D-03 OVMax= 1.37D-02

 Cycle   7  Pass 0  IDiag  1:
 RMSU=  7.79D-06    CP:  9.58D-01  2.14D+00  8.20D-01  4.64D-01  6.39D-01
                    CP:  2.93D-01
 E= -1694.06127381947     Delta-E=       -0.000318211720 Rises=F Damp=F
 DIIS: error= 3.31D-04 at cycle   7 NSaved=   7.
 NSaved= 7 IEnMin= 7 EnMin= -1694.06127381947     IErMin= 7 ErrMin= 3.31D-04
 ErrMax= 3.31D-04  0.00D+00 EMaxC= 1.00D-01 BMatC= 2.08D-05 BMatP= 2.79D-04
 IDIUse=3 WtCom= 9.97D-01 WtEn= 3.31D-03
 Coeff-Com: -0.350D-02 0.438D-02 0.531D-01 0.630D-01 0.214D+00 0.279D+00
 Coeff-Com:  0.389D+00
 Coeff-En:   0.000D+00 0.000D+00 0.000D+00 0.000D+00 0.000D+00 0.361D-01
 Coeff-En:   0.964D+00
 Coeff:     -0.349D-02 0.436D-02 0.529D-01 0.628D-01 0.213D+00 0.279D+00
 Coeff:      0.391D+00
 Gap=     0.065 Goal=   None    Shift=    0.000
 RMSDP=5.53D-06 MaxDP=3.15D-04 DE=-3.18D-04 OVMax= 2.35D-03

 Initial convergence to 1.0D-05 achieved.  Increase integral accuracy.
 Cycle   8  Pass 1  IDiag  1:
 E= -1694.06085441723     Delta-E=        0.000419402243 Rises=F Damp=F
 DIIS: error= 6.82D-04 at cycle   1 NSaved=   1.
 NSaved= 1 IEnMin= 1 EnMin= -1694.06085441723     IErMin= 1 ErrMin= 6.82D-04
 ErrMax= 6.82D-04  0.00D+00 EMaxC= 1.00D-01 BMatC= 4.24D-05 BMatP= 4.24D-05
 IDIUse=3 WtCom= 9.93D-01 WtEn= 6.82D-03
 Coeff-Com:  0.100D+01
 Coeff-En:   0.100D+01
 Coeff:      0.100D+01
 Gap=     0.065 Goal=   None    Shift=    0.000
 RMSDP=5.53D-06 MaxDP=3.15D-04 DE= 4.19D-04 OVMax= 1.19D-03

 Cycle   9  Pass 1  IDiag  1:
 RMSU=  2.77D-04    CP:  9.99D-01
 E= -1694.06089353653     Delta-E=       -0.000039119303 Rises=F Damp=F
 DIIS: error= 7.80D-05 at cycle   2 NSaved=   2.
 NSaved= 2 IEnMin= 2 EnMin= -1694.06089353653     IErMin= 2 ErrMin= 7.80D-05
 ErrMax= 7.80D-05  0.00D+00 EMaxC= 1.00D-01 BMatC= 2.15D-06 BMatP= 4.24D-05
 IDIUse=1 WtCom= 1.00D+00 WtEn= 0.00D+00
 Coeff-Com:  0.620D-01 0.938D+00
 Coeff:      0.620D-01 0.938D+00
 Gap=     0.065 Goal=   None    Shift=    0.000
 RMSDP=5.60D-06 MaxDP=3.20D-04 DE=-3.91D-05 OVMax= 2.41D-03

 Cycle  10  Pass 1  IDiag  1:
 RMSU=  4.84D-06    CP:  9.99D-01  1.01D+00
 E= -1694.06088420630     Delta-E=        0.000009330233 Rises=F Damp=F
 DIIS: error= 2.05D-04 at cycle   3 NSaved=   3.
 NSaved= 3 IEnMin= 2 EnMin= -1694.06089353653     IErMin= 2 ErrMin= 7.80D-05
 ErrMax= 2.05D-04  0.00D+00 EMaxC= 1.00D-01 BMatC= 9.72D-06 BMatP= 2.15D-06
 IDIUse=3 WtCom= 4.11D-01 WtEn= 5.89D-01
 Coeff-Com: -0.209D-02 0.684D+00 0.318D+00
 Coeff-En:   0.000D+00 0.769D+00 0.231D+00
 Coeff:     -0.860D-03 0.735D+00 0.266D+00
 Gap=     0.065 Goal=   None    Shift=    0.000
 RMSDP=3.08D-06 MaxDP=2.06D-04 DE= 9.33D-06 OVMax= 1.77D-03

 Cycle  11  Pass 1  IDiag  1:
 RMSU=  9.10D-07    CP:  9.99D-01  1.01D+00  3.93D-01
 E= -1694.06089560484     Delta-E=       -0.000011398538 Rises=F Damp=F
 DIIS: error= 2.97D-05 at cycle   4 NSaved=   4.
 NSaved= 4 IEnMin= 4 EnMin= -1694.06089560484     IErMin= 4 ErrMin= 2.97D-05
 ErrMax= 2.97D-05  0.00D+00 EMaxC= 1.00D-01 BMatC= 3.38D-07 BMatP= 2.15D-06
 IDIUse=1 WtCom= 1.00D+00 WtEn= 0.00D+00
 Coeff-Com: -0.384D-02 0.449D+00 0.158D+00 0.397D+00
 Coeff:     -0.384D-02 0.449D+00 0.158D+00 0.397D+00
 Gap=     0.065 Goal=   None    Shift=    0.000
 RMSDP=5.65D-07 MaxDP=2.88D-05 DE=-1.14D-05 OVMax= 1.40D-04

 Cycle  12  Pass 1  IDiag  1:
 RMSU=  3.23D-07    CP:  9.99D-01  1.01D+00  3.24D-01  6.51D-01
 E= -1694.06089593609     Delta-E=       -0.000000331257 Rises=F Damp=F
 DIIS: error= 5.56D-06 at cycle   5 NSaved=   5.
 NSaved= 5 IEnMin= 5 EnMin= -1694.06089593609     IErMin= 5 ErrMin= 5.56D-06
 ErrMax= 5.56D-06  0.00D+00 EMaxC= 1.00D-01 BMatC= 3.75D-09 BMatP= 3.38D-07
 IDIUse=1 WtCom= 1.00D+00 WtEn= 0.00D+00
 Coeff-Com: -0.224D-02 0.253D+00 0.884D-01 0.235D+00 0.425D+00
 Coeff:     -0.224D-02 0.253D+00 0.884D-01 0.235D+00 0.425D+00
 Gap=     0.065 Goal=   None    Shift=    0.000
 RMSDP=9.29D-08 MaxDP=4.07D-06 DE=-3.31D-07 OVMax= 3.70D-05

 Cycle  13  Pass 1  IDiag  1:
 RMSU=  8.39D-08    CP:  9.99D-01  1.01D+00  3.27D-01  6.61D-01  8.89D-01
 E= -1694.06089594039     Delta-E=       -0.000000004295 Rises=F Damp=F
 DIIS: error= 2.07D-06 at cycle   6 NSaved=   6.
 NSaved= 6 IEnMin= 6 EnMin= -1694.06089594039     IErMin= 6 ErrMin= 2.07D-06
 ErrMax= 2.07D-06  0.00D+00 EMaxC= 1.00D-01 BMatC= 6.17D-10 BMatP= 3.75D-09
 IDIUse=1 WtCom= 1.00D+00 WtEn= 0.00D+00
 Coeff-Com: -0.841D-03 0.916D-01 0.321D-01 0.886D-01 0.286D+00 0.503D+00
 Coeff:     -0.841D-03 0.916D-01 0.321D-01 0.886D-01 0.286D+00 0.503D+00
 Gap=     0.065 Goal=   None    Shift=    0.000
 RMSDP=2.70D-08 MaxDP=1.54D-06 DE=-4.29D-09 OVMax= 1.24D-05

 Cycle  14  Pass 1  IDiag  1:
 RMSU=  1.75D-08    CP:  9.99D-01  1.01D+00  3.28D-01  6.55D-01  9.21D-01
                    CP:  8.15D-01
 E= -1694.06089594109     Delta-E=       -0.000000000698 Rises=F Damp=F
 DIIS: error= 1.55D-07 at cycle   7 NSaved=   7.
 NSaved= 7 IEnMin= 7 EnMin= -1694.06089594109     IErMin= 7 ErrMin= 1.55D-07
 ErrMax= 1.55D-07  0.00D+00 EMaxC= 1.00D-01 BMatC= 1.49D-11 BMatP= 6.17D-10
 IDIUse=1 WtCom= 1.00D+00 WtEn= 0.00D+00
 Coeff-Com: -0.123D-03 0.126D-01 0.399D-02 0.144D-01 0.690D-01 0.180D+00
 Coeff-Com:  0.720D+00
 Coeff:     -0.123D-03 0.126D-01 0.399D-02 0.144D-01 0.690D-01 0.180D+00
 Coeff:      0.720D+00
 Gap=     0.065 Goal=   None    Shift=    0.000
 RMSDP=7.20D-09 MaxDP=3.19D-07 DE=-6.98D-10 OVMax= 1.93D-06

 SCF Done:  E(RB3LYP) =  -1694.06089594     A.U. after   14 cycles
            NFock= 14  Conv=0.72D-08     -V/T= 2.0044
 KE= 1.686680646524D+03 PE=-1.318516068822D+04 EE= 5.177086023472D+03
 Leave Link  502 at Wed Sep 27 16:59:16 2023, MaxMem=  3221225472 cpu:            3494.2 elap:              96.3
 (Enter /home/center/opt/aarch64/apps/gaussian16/c01/g16/l601.exe)
 Copying SCF densities to generalized density rwf, IOpCl= 0 IROHF=0.

 **********************************************************************

            Population analysis using the SCF Density.

 **********************************************************************

 Orbital symmetries:
       Occupied  (A") (A') (A') (A") (A") (A') (A") (A') (A') (A')
                 (A") (A') (A") (A') (A") (A') (A") (A') (A') (A")
                 (A") (A') (A") (A') (A") (A') (A') (A") (A") (A')
                 (A") (A') (A') (A") (A') (A") (A') (A") (A') (A')
                 (A") (A') (A") (A') (A') (A") (A') (A") (A') (A')
                 (A") (A") (A') (A') (A") (A') (A') (A") (A') (A')
                 (A") (A") (A") (A") (A') (A') (A') (A') (A") (A")
                 (A") (A') (A") (A") (A') (A') (A") (A') (A') (A')
                 (A') (A") (A") (A') (A") (A") (A') (A") (A') (A')
                 (A") (A') (A') (A") (A") (A') (A") (A") (A') (A')
                 (A") (A') (A') (A') (A') (A') (A") (A") (A") (A')
                 (A') (A') (A") (A") (A") (A") (A") (A') (A") (A')
                 (A') (A') (A') (A") (A') (A") (A') (A") (A") (A")
                 (A') (A") (A') (A') (A") (A') (A") (A') (A') (A')
                 (A") (A") (A") (A") (A') (A')
       Virtual   (A') (A') (A") (A") (A") (A") (A') (A') (A') (A")
                 (A') (A') (A") (A') (A') (A") (A') (A') (A") (A")
                 (A') (A') (A") (A") (A') (A") (A') (A") (A') (A")
                 (A") (A') (A") (A') (A') (A") (A") (A') (A") (A')
                 (A') (A') (A") (A') (A") (A') (A") (A') (A") (A')
                 (A") (A') (A') (A') (A') (A') (A') (A") (A") (A")
                 (A') (A") (A") (A") (A') (A') (A") (A") (A') (A")
                 (A') (A') (A") (A') (A") (A') (A") (A') (A") (A')
                 (A") (A') (A') (A') (A') (A') (A") (A") (A') (A")
                 (A") (A") (A') (A') (A') (A') (A") (A') (A') (A")
                 (A") (A") (A") (A') (A") (A') (A") (A') (A") (A")
                 (A') (A') (A") (A") (A') (A') (A") (A') (A') (A')
                 (A") (A') (A") (A') (A') (A') (A') (A") (A') (A")
                 (A') (A") (A") (A') (A') (A") (A") (A') (A") (A')
                 (A") (A') (A') (A') (A") (A') (A') (A") (A") (A")
                 (A") (A') (A") (A') (A") (A') (A') (A") (A') (A")
                 (A') (A") (A') (A') (A") (A") (A") (A') (A") (A")
                 (A') (A') (A') (A") (A') (A') (A') (A") (A') (A")
                 (A") (A") (A') (A') (A") (A') (A") (A') (A') (A")
                 (A") (A') (A") (A") (A') (A') (A") (A') (A') (A")
                 (A') (A") (A') (A") (A') (A') (A") (A') (A") (A')
                 (A') (A") (A") (A") (A') (A') (A") (A") (A') (A')
                 (A") (A") (A") (A') (A") (A') (A') (A") (A') (A')
                 (A') (A") (A") (A') (A') (A") (A') (A") (A") (A')
                 (A') (A") (A") (A') (A') (A") (A') (A") (A') (A")
                 (A") (A') (A') (A") (A") (A') (A') (A") (A") (A')
                 (A') (A") (A') (A") (A') (A') (A") (A') (A") (A")
                 (A") (A") (A') (A') (A') (A") (A') (A") (A") (A')
                 (A") (A') (A") (A') (A') (A") (A') (A") (A") (A')
                 (A') (A') (A") (A') (A") (A') (A") (A') (A") (A')
                 (A") (A") (A") (A') (A") (A') (A') (A") (A') (A')
                 (A") (A') (A") (A') (A") (A') (A") (A") (A') (A')
                 (A") (A') (A") (A') (A") (A') (A') (A") (A") (A')
                 (A") (A") (A') (A") (A') (A') (A") (A") (A') (A')
                 (A") (A') (A') (A") (A') (A") (A') (A') (A") (A")
                 (A') (A") (A') (A") (A') (A') (A') (A') (A') (A")
                 (A') (A") (A') (A") (A') (A") (A") (A") (A") (A')
                 (A") (A") (A') (A") (A') (A") (A') (A") (A") (A')
                 (A') (A") (A') (A') (A") (A') (A') (A') (A") (A')
                 (A') (A') (A") (A") (A') (A") (A") (A') (A') (A")
                 (A") (A') (A") (A') (A") (A') (A') (A") (A') (A")
                 (A') (A') (A") (A') (A") (A') (A') (A") (A') (A")
                 (A') (A") (A') (A") (A') (A") (A') (A') (A") (A')
                 (A") (A") (A") (A') (A') (A") (A") (A') (A") (A')
                 (A") (A') (A') (A") (A") (A') (A") (A") (A') (A')
                 (A") (A') (A") (A') (A") (A') (A") (A') (A") (A')
                 (A") (A") (A') (A') (A") (A') (A") (A') (A') (A')
                 (A") (A") (A') (A') (A") (A") (A") (A') (A") (A')
                 (A") (A') (A') (A") (A') (A') (A") (A") (A") (A')
                 (A") (A") (A") (A') (A") (A") (A") (A') (A') (A")
                 (A') (A") (A') (A') (A') (A") (A') (A') (A") (A')
                 (A") (A') (A") (A') (A') (A") (A') (A") (A') (A")
                 (A") (A") (A") (A') (A') (A') (A") (A') (A") (A")
                 (A') (A") (A') (A') (A") (A") (A') (A") (A') (A')
                 (A") (A') (A") (A') (A') (A") (A") (A") (A') (A")
                 (A") (A') (A") (A') (A") (A') (A') (A") (A') (A')
                 (A") (A') (A') (A") (A") (A") (A') (A") (A') (A')
                 (A') (A") (A') (A") (A') (A') (A") (A') (A') (A")
                 (A') (A") (A") (A') (A") (A') (A") (A') (A') (A")
                 (A') (A") (A") (A") (A") (A') (A") (A') (A') (A')
                 (A") (A') (A') (A') (A') (A') (A") (A") (A") (A')
                 (A") (A') (A') (A') (A") (A') (A") (A") (A') (A")
                 (A') (A') (A') (A") (A") (A') (A") (A') (A") (A")
                 (A') (A") (A') (A") (A') (A") (A') (A') (A') (A")
                 (A') (A") (A') (A") (A') (A") (A") (A") (A') (A')
                 (A") (A') (A') (A") (A') (A') (A") (A') (A') (A")
                 (A") (A') (A") (A') (A") (A") (A') (A') (A") (A')
                 (A') (A") (A") (A') (A") (A') (A") (A") (A') (A')
                 (A') (A') (A") (A") (A') (A") (A') (A") (A") (A")
                 (A') (A') (A") (A') (A') (A') (A") (A") (A") (A')
                 (A") (A') (A') (A") (A') (A") (A') (A") (A') (A")
                 (A") (A") (A') (A") (A') (A') (A') (A") (A') (A")
                 (A') (A") (A') (A') (A") (A') (A') (A") (A') (A")
                 (A') (A") (A") (A') (A") (A') (A') (A") (A") (A')
                 (A') (A") (A') (A") (A') (A') (A") (A') (A') (A")
                 (A') (A') (A") (A') (A") (A") (A') (A') (A") (A")
                 (A") (A') (A") (A") (A') (A') (A") (A") (A') (A")
                 (A') (A') (A") (A") (A') (A') (A') (A') (A") (A")
                 (A") (A") (A') (A') (A") (A') (A") (A') (A') (A')
                 (A") (A") (A") (A") (A') (A') (A") (A') (A') (A")
                 (A') (A") (A') (A') (A") (A") (A') (A') (A") (A')
                 (A') (A") (A') (A")
 The electronic state is 1-A'.
 Alpha  occ. eigenvalues --  -10.19646 -10.19646 -10.19605 -10.19604 -10.19538
 Alpha  occ. eigenvalues --  -10.19538 -10.19491 -10.19491 -10.18661 -10.18649
 Alpha  occ. eigenvalues --  -10.18601 -10.18601 -10.18599 -10.18599 -10.18496
 Alpha  occ. eigenvalues --  -10.18496 -10.18464 -10.18464 -10.18427 -10.18427
 Alpha  occ. eigenvalues --  -10.18383 -10.18383 -10.18044 -10.18044 -10.17997
 Alpha  occ. eigenvalues --  -10.17997 -10.17950 -10.17949 -10.17871 -10.17871
 Alpha  occ. eigenvalues --  -10.17122 -10.17122 -10.17048 -10.17048 -10.17046
 Alpha  occ. eigenvalues --  -10.17040 -10.17040 -10.16952 -10.16952 -10.16951
 Alpha  occ. eigenvalues --  -10.16912 -10.16912 -10.16831 -10.16831  -0.90071
 Alpha  occ. eigenvalues --   -0.88568  -0.88444  -0.86991  -0.86239  -0.84687
 Alpha  occ. eigenvalues --   -0.83096  -0.81559  -0.80493  -0.79196  -0.78962
 Alpha  occ. eigenvalues --   -0.78902  -0.77668  -0.77418  -0.76630  -0.75106
 Alpha  occ. eigenvalues --   -0.74936  -0.73537  -0.73397  -0.72021  -0.69841
 Alpha  occ. eigenvalues --   -0.68310  -0.68008  -0.66481  -0.63377  -0.63009
 Alpha  occ. eigenvalues --   -0.61854  -0.61743  -0.61517  -0.60583  -0.60173
 Alpha  occ. eigenvalues --   -0.59919  -0.59044  -0.58406  -0.58314  -0.56828
 Alpha  occ. eigenvalues --   -0.53349  -0.53190  -0.52908  -0.51851  -0.51678
 Alpha  occ. eigenvalues --   -0.51437  -0.50252  -0.49147  -0.48755  -0.47751
 Alpha  occ. eigenvalues --   -0.47681  -0.46699  -0.46301  -0.46154  -0.46126
 Alpha  occ. eigenvalues --   -0.45358  -0.44773  -0.44609  -0.44561  -0.43770
 Alpha  occ. eigenvalues --   -0.43151  -0.43091  -0.42411  -0.42362  -0.42184
 Alpha  occ. eigenvalues --   -0.41946  -0.41695  -0.41362  -0.41026  -0.40895
 Alpha  occ. eigenvalues --   -0.40665  -0.40519  -0.40256  -0.39802  -0.39541
 Alpha  occ. eigenvalues --   -0.38796  -0.38736  -0.37461  -0.37344  -0.36946
 Alpha  occ. eigenvalues --   -0.36147  -0.35902  -0.35523  -0.34743  -0.34511
 Alpha  occ. eigenvalues --   -0.34400  -0.33670  -0.33534  -0.33223  -0.32818
 Alpha  occ. eigenvalues --   -0.32475  -0.32109  -0.31896  -0.30696  -0.30360
 Alpha  occ. eigenvalues --   -0.29095  -0.28770  -0.27593  -0.27320  -0.25739
 Alpha  occ. eigenvalues --   -0.25140  -0.23535  -0.23277  -0.21699  -0.18564
 Alpha  occ. eigenvalues --   -0.16954
 Alpha virt. eigenvalues --   -0.10463  -0.08883  -0.05152  -0.03615  -0.03472
 Alpha virt. eigenvalues --   -0.01908  -0.00839   0.00693   0.01396   0.01646
 Alpha virt. eigenvalues --    0.02402   0.02897   0.03174   0.03755   0.03985
 Alpha virt. eigenvalues --    0.03991   0.04707   0.05449   0.05818   0.05913
 Alpha virt. eigenvalues --    0.06067   0.06623   0.07283   0.07634   0.07844
 Alpha virt. eigenvalues --    0.07965   0.08737   0.09131   0.09164   0.09692
 Alpha virt. eigenvalues --    0.09968   0.10242   0.10847   0.11108   0.11193
 Alpha virt. eigenvalues --    0.11951   0.12706   0.13126   0.13444   0.13464
 Alpha virt. eigenvalues --    0.14255   0.14944   0.15389   0.15795   0.17389
 Alpha virt. eigenvalues --    0.17840   0.18307   0.18489   0.18876   0.19442
 Alpha virt. eigenvalues --    0.19601   0.20202   0.22275   0.22288   0.23724
 Alpha virt. eigenvalues --    0.23794   0.23941   0.24359   0.25024   0.25183
 Alpha virt. eigenvalues --    0.25279   0.26278   0.26946   0.26992   0.27213
 Alpha virt. eigenvalues --    0.27638   0.27809   0.28232   0.28718   0.28722
 Alpha virt. eigenvalues --    0.29025   0.29429   0.29530   0.30074   0.30234
 Alpha virt. eigenvalues --    0.30251   0.30609   0.31293   0.31744   0.32088
 Alpha virt. eigenvalues --    0.32445   0.33986   0.34581   0.34737   0.34887
 Alpha virt. eigenvalues --    0.35152   0.35242   0.35573   0.35747   0.36203
 Alpha virt. eigenvalues --    0.36825   0.37079   0.37673   0.38101   0.38295
 Alpha virt. eigenvalues --    0.38656   0.38733   0.38793   0.38947   0.39144
 Alpha virt. eigenvalues --    0.39278   0.39365   0.39654   0.39767   0.39920
 Alpha virt. eigenvalues --    0.40032   0.40205   0.40519   0.41310   0.41386
 Alpha virt. eigenvalues --    0.41881   0.42303   0.42423   0.42525   0.42528
 Alpha virt. eigenvalues --    0.42840   0.42908   0.43142   0.43295   0.43708
 Alpha virt. eigenvalues --    0.43970   0.44350   0.44371   0.44554   0.44870
 Alpha virt. eigenvalues --    0.45222   0.45330   0.45381   0.45500   0.45713
 Alpha virt. eigenvalues --    0.45972   0.45994   0.46134   0.46570   0.46879
 Alpha virt. eigenvalues --    0.47108   0.47241   0.47324   0.47961   0.48067
 Alpha virt. eigenvalues --    0.48650   0.48775   0.49056   0.49365   0.49401
 Alpha virt. eigenvalues --    0.49918   0.50215   0.50271   0.50359   0.50720
 Alpha virt. eigenvalues --    0.50825   0.51054   0.51373   0.51780   0.52064
 Alpha virt. eigenvalues --    0.52287   0.52874   0.53333   0.54047   0.54163
 Alpha virt. eigenvalues --    0.54961   0.55315   0.55839   0.56347   0.56362
 Alpha virt. eigenvalues --    0.57367   0.57538   0.57749   0.58113   0.58386
 Alpha virt. eigenvalues --    0.58414   0.58690   0.58994   0.59653   0.59659
 Alpha virt. eigenvalues --    0.60019   0.60614   0.61259   0.61449   0.61475
 Alpha virt. eigenvalues --    0.61643   0.61999   0.62158   0.62327   0.62634
 Alpha virt. eigenvalues --    0.62878   0.63396   0.63485   0.63628   0.63738
 Alpha virt. eigenvalues --    0.64013   0.64208   0.64744   0.65547   0.65891
 Alpha virt. eigenvalues --    0.66185   0.66531   0.66665   0.66752   0.66757
 Alpha virt. eigenvalues --    0.67311   0.67610   0.69684   0.69987   0.70801
 Alpha virt. eigenvalues --    0.71063   0.71396   0.71472   0.71835   0.72388
 Alpha virt. eigenvalues --    0.72841   0.72994   0.73160   0.73782   0.73861
 Alpha virt. eigenvalues --    0.74181   0.74778   0.75848   0.76042   0.76179
 Alpha virt. eigenvalues --    0.76357   0.77145   0.77776   0.77793   0.77967
 Alpha virt. eigenvalues --    0.78591   0.79129   0.79487   0.79571   0.80557
 Alpha virt. eigenvalues --    0.80725   0.80761   0.81753   0.81757   0.82230
 Alpha virt. eigenvalues --    0.82395   0.83044   0.83183   0.83503   0.84114
 Alpha virt. eigenvalues --    0.84147   0.85090   0.85302   0.85370   0.85979
 Alpha virt. eigenvalues --    0.86850   0.87338   0.87537   0.88291   0.88383
 Alpha virt. eigenvalues --    0.90087   0.90251   0.90488   0.90635   0.91597
 Alpha virt. eigenvalues --    0.91897   0.92659   0.93419   0.94199   0.94600
 Alpha virt. eigenvalues --    0.95012   0.95253   0.95551   0.96380   0.96835
 Alpha virt. eigenvalues --    0.97042   0.97477   0.97638   0.97934   0.98319
 Alpha virt. eigenvalues --    0.99417   0.99847   0.99856   1.00478   1.01497
 Alpha virt. eigenvalues --    1.01866   1.01889   1.01940   1.02499   1.02557
 Alpha virt. eigenvalues --    1.02923   1.03572   1.04096   1.04519   1.04634
 Alpha virt. eigenvalues --    1.04980   1.05198   1.05310   1.06057   1.06147
 Alpha virt. eigenvalues --    1.06224   1.06426   1.06440   1.06871   1.06940
 Alpha virt. eigenvalues --    1.07049   1.07704   1.08333   1.08429   1.09045
 Alpha virt. eigenvalues --    1.09316   1.09510   1.10539   1.10663   1.10969
 Alpha virt. eigenvalues --    1.11424   1.12104   1.12497   1.12721   1.12858
 Alpha virt. eigenvalues --    1.13018   1.13406   1.13886   1.14123   1.14953
 Alpha virt. eigenvalues --    1.15048   1.15391   1.16293   1.16892   1.17455
 Alpha virt. eigenvalues --    1.17590   1.18478   1.18563   1.19110   1.21194
 Alpha virt. eigenvalues --    1.21544   1.22567   1.22766   1.23066   1.23990
 Alpha virt. eigenvalues --    1.24628   1.25816   1.27392   1.27791   1.29621
 Alpha virt. eigenvalues --    1.30137   1.30691   1.31740   1.32150   1.32994
 Alpha virt. eigenvalues --    1.34260   1.35213   1.35722   1.36830   1.36928
 Alpha virt. eigenvalues --    1.38888   1.39377   1.39605   1.39946   1.40681
 Alpha virt. eigenvalues --    1.40736   1.41292   1.41320   1.41754   1.42163
 Alpha virt. eigenvalues --    1.42528   1.43428   1.44314   1.44357   1.44525
 Alpha virt. eigenvalues --    1.45587   1.45838   1.46591   1.46875   1.47371
 Alpha virt. eigenvalues --    1.47756   1.47962   1.48647   1.48728   1.48762
 Alpha virt. eigenvalues --    1.49028   1.49856   1.50005   1.50302   1.50655
 Alpha virt. eigenvalues --    1.50867   1.51668   1.51681   1.52320   1.52810
 Alpha virt. eigenvalues --    1.52854   1.53701   1.53750   1.53894   1.54448
 Alpha virt. eigenvalues --    1.54771   1.55184   1.55343   1.55376   1.55873
 Alpha virt. eigenvalues --    1.55948   1.57752   1.57820   1.58202   1.58885
 Alpha virt. eigenvalues --    1.59197   1.59714   1.59919   1.60865   1.61046
 Alpha virt. eigenvalues --    1.62011   1.62164   1.62565   1.62793   1.64535
 Alpha virt. eigenvalues --    1.65161   1.65636   1.65991   1.66879   1.67692
 Alpha virt. eigenvalues --    1.68851   1.69048   1.69723   1.70605   1.70634
 Alpha virt. eigenvalues --    1.70778   1.71564   1.71994   1.71994   1.72718
 Alpha virt. eigenvalues --    1.73358   1.73368   1.73626   1.73865   1.73881
 Alpha virt. eigenvalues --    1.74192   1.74582   1.74939   1.75206   1.76663
 Alpha virt. eigenvalues --    1.76920   1.78285   1.78614   1.78635   1.79957
 Alpha virt. eigenvalues --    1.80046   1.80129   1.80421   1.81373   1.82166
 Alpha virt. eigenvalues --    1.82272   1.82453   1.82783   1.82817   1.82835
 Alpha virt. eigenvalues --    1.83760   1.83906   1.84007   1.84931   1.85168
 Alpha virt. eigenvalues --    1.85605   1.86680   1.87015   1.87241   1.87308
 Alpha virt. eigenvalues --    1.87425   1.87833   1.88303   1.88565   1.88706
 Alpha virt. eigenvalues --    1.89021   1.89202   1.89304   1.90054   1.90773
 Alpha virt. eigenvalues --    1.91073   1.91443   1.91668   1.92184   1.92385
 Alpha virt. eigenvalues --    1.92536   1.93151   1.93154   1.93539   1.93541
 Alpha virt. eigenvalues --    1.93866   1.94142   1.94609   1.94655   1.95766
 Alpha virt. eigenvalues --    1.95980   1.96171   1.96329   1.97110   1.97502
 Alpha virt. eigenvalues --    1.98980   1.99460   2.00626   2.00668   2.00803
 Alpha virt. eigenvalues --    2.01457   2.01600   2.02594   2.02833   2.03907
 Alpha virt. eigenvalues --    2.05701   2.06929   2.07626   2.08484   2.08501
 Alpha virt. eigenvalues --    2.09174   2.09692   2.10275   2.11211   2.11584
 Alpha virt. eigenvalues --    2.11658   2.12532   2.13259   2.14015   2.15201
 Alpha virt. eigenvalues --    2.15270   2.16190   2.16585   2.16821   2.18089
 Alpha virt. eigenvalues --    2.18089   2.19155   2.20252   2.22026   2.22094
 Alpha virt. eigenvalues --    2.22300   2.22784   2.23064   2.23228   2.23905
 Alpha virt. eigenvalues --    2.24204   2.25321   2.25649   2.26618   2.26811
 Alpha virt. eigenvalues --    2.26892   2.27192   2.27437   2.27649   2.28210
 Alpha virt. eigenvalues --    2.28290   2.29623   2.29626   2.30779   2.32545
 Alpha virt. eigenvalues --    2.34316   2.35112   2.35273   2.36808   2.38641
 Alpha virt. eigenvalues --    2.38735   2.40179   2.40297   2.40828   2.42078
 Alpha virt. eigenvalues --    2.42414   2.42644   2.44263   2.44643   2.45095
 Alpha virt. eigenvalues --    2.45327   2.45776   2.46797   2.47027   2.49038
 Alpha virt. eigenvalues --    2.51477   2.52849   2.53019   2.53205   2.54138
 Alpha virt. eigenvalues --    2.54728   2.55060   2.56335   2.56505   2.56978
 Alpha virt. eigenvalues --    2.58221   2.58297   2.59184   2.59191   2.59494
 Alpha virt. eigenvalues --    2.60029   2.60679   2.60957   2.61092   2.61407
 Alpha virt. eigenvalues --    2.61650   2.61869   2.62046   2.62320   2.63079
 Alpha virt. eigenvalues --    2.63315   2.63999   2.64008   2.64595   2.64929
 Alpha virt. eigenvalues --    2.65443   2.65506   2.66080   2.66509   2.66718
 Alpha virt. eigenvalues --    2.66861   2.67606   2.67894   2.68138   2.68305
 Alpha virt. eigenvalues --    2.68703   2.68865   2.69036   2.69144   2.69563
 Alpha virt. eigenvalues --    2.69684   2.69707   2.70009   2.71006   2.71109
 Alpha virt. eigenvalues --    2.71623   2.71785   2.72468   2.72936   2.72973
 Alpha virt. eigenvalues --    2.73158   2.73655   2.73853   2.74271   2.74630
 Alpha virt. eigenvalues --    2.74949   2.75208   2.76119   2.76737   2.76971
 Alpha virt. eigenvalues --    2.77209   2.77426   2.77606   2.78295   2.79276
 Alpha virt. eigenvalues --    2.79393   2.79400   2.79699   2.80290   2.81369
 Alpha virt. eigenvalues --    2.81949   2.82515   2.83431   2.83739   2.85126
 Alpha virt. eigenvalues --    2.85832   2.86179   2.86687   2.87264   2.87475
 Alpha virt. eigenvalues --    2.88329   2.89122   2.90080   2.90398   2.91955
 Alpha virt. eigenvalues --    2.92983   2.93149   2.93318   2.93507   2.93983
 Alpha virt. eigenvalues --    2.96122   2.96245   2.96746   2.97970   2.98044
 Alpha virt. eigenvalues --    2.98661   2.98863   3.00486   3.02145   3.02351
 Alpha virt. eigenvalues --    3.04770   3.05374   3.06145   3.07269   3.07651
 Alpha virt. eigenvalues --    3.08615   3.09001   3.15619   3.16030   3.16725
 Alpha virt. eigenvalues --    3.17079   3.17458   3.17960   3.19249   3.20533
 Alpha virt. eigenvalues --    3.20980   3.21326   3.24057   3.24677   3.29539
 Alpha virt. eigenvalues --    3.30259   3.30284   3.30753   3.31122   3.32872
 Alpha virt. eigenvalues --    3.35168   3.35506   3.36377   3.36592   3.36875
 Alpha virt. eigenvalues --    3.37240   3.37415   3.38039   3.39076   3.39391
 Alpha virt. eigenvalues --    3.40883   3.40914   3.41312   3.42659   3.44578
 Alpha virt. eigenvalues --    3.44860   3.45995   3.46531   3.49166   3.49204
 Alpha virt. eigenvalues --    3.50177   3.51342   3.51856   3.52075   3.52801
 Alpha virt. eigenvalues --    3.54766   3.56968   3.58338   3.58573   3.59956
 Alpha virt. eigenvalues --    3.61436   3.62374   3.62680   3.63608   3.64078
 Alpha virt. eigenvalues --    3.64083   3.66402   3.66448   3.67441   3.68241
 Alpha virt. eigenvalues --    3.68598   3.69638   3.71301   3.71454   4.00040
 Alpha virt. eigenvalues --    4.00083   4.01292   4.01618   4.01860   4.01893
 Alpha virt. eigenvalues --    4.02925   4.03255   4.15584   4.16142   4.17323
 Alpha virt. eigenvalues --    4.18075   4.18686   4.20449   4.20706   4.21835
 Alpha virt. eigenvalues --    4.21968   4.22858   4.23915   4.25156   4.25706
 Alpha virt. eigenvalues --    4.28581   4.38234   4.40488   4.61790   4.64022
 Alpha virt. eigenvalues --    4.78512   4.79123   4.79900   4.80646   4.81018
 Alpha virt. eigenvalues --    4.81943   4.82233   4.82406   4.84435   4.84709
 Alpha virt. eigenvalues --   23.39866  23.44157  23.55058  23.59769  23.69616
 Alpha virt. eigenvalues --   23.73602  23.77002  23.78832  23.80874  23.81116
 Alpha virt. eigenvalues --   23.82560  23.84255  23.85608  23.87414  23.88543
 Alpha virt. eigenvalues --   23.89682  23.90445  23.91342  23.91812  23.93916
 Alpha virt. eigenvalues --   23.96869  23.98420  23.98606  23.99510  24.08789
 Alpha virt. eigenvalues --   24.09437  24.10130  24.10173  24.10895  24.11499
 Alpha virt. eigenvalues --   24.11580  24.13122  24.13395  24.13706  24.14915
 Alpha virt. eigenvalues --   24.15212  24.15252  24.15607  24.16634  24.16666
 Alpha virt. eigenvalues --   24.19851  24.19895  24.21460  24.21524
          Condensed to atoms (all electrons):
 Mulliken charges:
               1
     1  C   -0.065275
     2  C   -0.064585
     3  C   -0.050911
     4  C   -0.066000
     5  C   -0.092987
     6  C   -0.094779
     7  C   -0.005584
     8  C   -0.062706
     9  C   -0.030059
    10  C   -0.056844
    11  H    0.085159
    12  H    0.077781
    13  H    0.076888
    14  H    0.085012
    15  H    0.098092
    16  H    0.097733
    17  C   -0.010183
    18  C   -0.062706
    19  C   -0.034540
    20  C   -0.056844
    21  H    0.076461
    22  H    0.075584
    23  C   -0.005584
    24  C   -0.065275
    25  C   -0.030059
    26  C   -0.064585
    27  H    0.077781
    28  H    0.076888
    29  C   -0.050911
    30  C   -0.092987
    31  C   -0.066000
    32  C   -0.094779
    33  H    0.085159
    34  H    0.097733
    35  H    0.098092
    36  H    0.085012
    37  C   -0.027915
    38  C   -0.119019
    39  C   -0.062998
    40  C   -0.046536
    41  C   -0.087002
    42  C   -0.120462
    43  C   -0.029813
    44  C   -0.017013
    45  C   -0.004661
    46  C   -0.123491
    47  H    0.078650
    48  H    0.070450
    49  H    0.124675
    50  H    0.128402
    51  H    0.086449
    52  H    0.091148
    53  C   -0.034139
    54  C   -0.017013
    55  C   -0.008373
    56  C   -0.123491
    57  H    0.069052
    58  H    0.122540
    59  C   -0.029813
    60  C   -0.027915
    61  C   -0.004661
    62  C   -0.119019
    63  H    0.070450
    64  H    0.124675
    65  C   -0.062998
    66  C   -0.087002
    67  C   -0.046536
    68  C   -0.120462
    69  H    0.078650
    70  H    0.091148
    71  H    0.086449
    72  H    0.128402
 Sum of Mulliken charges =   0.00000
 Mulliken charges with hydrogens summed into heavy atoms:
               1
     1  C   -0.065275
     2  C   -0.064585
     3  C    0.034248
     4  C    0.019012
     5  C    0.004746
     6  C    0.003313
     7  C    0.072197
     8  C   -0.062706
     9  C    0.046829
    10  C   -0.056844
    17  C    0.066278
    18  C   -0.062706
    19  C    0.041045
    20  C   -0.056844
    23  C    0.072197
    24  C   -0.065275
    25  C    0.046829
    26  C   -0.064585
    29  C    0.034248
    30  C    0.004746
    31  C    0.019012
    32  C    0.003313
    37  C   -0.027915
    38  C   -0.119019
    39  C    0.015652
    40  C    0.081867
    41  C    0.004146
    42  C   -0.034013
    43  C    0.040637
    44  C   -0.017013
    45  C    0.120014
    46  C   -0.123491
    53  C    0.034913
    54  C   -0.017013
    55  C    0.114167
    56  C   -0.123491
    59  C    0.040637
    60  C   -0.027915
    61  C    0.120014
    62  C   -0.119019
    65  C    0.015652
    66  C    0.004146
    67  C    0.081867
    68  C   -0.034013
         Mulliken charges condensed to fragments:
      1     -0.030807
      2      0.030807
 Electronic spatial extent (au):  <R**2>=          25962.8101
 Charge=              0.0000 electrons
 Dipole moment (field-independent basis, Debye):
    X=              0.1967    Y=             -1.4849    Z=              0.0000  Tot=              1.4979
 Quadrupole moment (field-independent basis, Debye-Ang):
   XX=           -245.8419   YY=           -249.3803   ZZ=           -219.7863
   XY=             -0.1259   XZ=              0.0000   YZ=              0.0000
 Traceless Quadrupole moment (field-independent basis, Debye-Ang):
   XX=             -7.5058   YY=            -11.0441   ZZ=             18.5499
   XY=             -0.1259   XZ=              0.0000   YZ=              0.0000
 Octapole moment (field-independent basis, Debye-Ang**2):
  XXX=             14.8078  YYY=            177.4902  ZZZ=              0.0000  XYY=             -2.8279
  XXY=            -72.7628  XXZ=              0.0000  XZZ=              3.4366  YZZ=            -33.8608
  YYZ=              0.0000  XYZ=              0.0000
 Hexadecapole moment (field-independent basis, Debye-Ang**3):
 XXXX=          -1304.9607 YYYY=         -11761.7105 ZZZZ=         -21036.9458 XXXY=            345.3211
 XXXZ=              0.0000 YYYX=            348.6195 YYYZ=              0.0000 ZZZX=              0.0000
 ZZZY=              0.0000 XXYY=          -2250.4059 XXZZ=          -4166.7388 YYZZ=          -5747.5955
 XXYZ=              0.0000 YYXZ=              0.0000 ZZXY=            101.8131
 N-N= 4.627333122284D+03 E-N=-1.318516068514D+04  KE= 1.686680646524D+03
 Symmetry A'   KE= 9.134211729614D+02
 Symmetry A"   KE= 7.732594735631D+02
 No NMR shielding tensors so no spin-rotation constants.
 Leave Link  601 at Wed Sep 27 16:59:20 2023, MaxMem=  3221225472 cpu:              54.2 elap:               1.4
 (Enter /home/center/opt/aarch64/apps/gaussian16/c01/g16/l122.exe)
 CPIOFr:  IOpCl= 0 IRwI=-1 IRwCP=  731 ICalc= -1 LCPTot=     1419224 Len1MO=     3708034 IndFrg=     1419224
 CPIOFr:  IOpCl= 0 IRwI=-1 IRwCP=  731 ICalc=  0 LCPTot=     1419224 Len1MO=     3708034 IndFrg=     5127258
 Counterpoise: doing calculation for fragment   1 using the basis set of the full-system, NewBq=T
 Leave Link  122 at Wed Sep 27 16:59:23 2023, MaxMem=  3221225472 cpu:               8.4 elap:               0.5
 (Enter /home/center/opt/aarch64/apps/gaussian16/c01/g16/l301.exe)
 Basis read from rwf:  (5D, 7F)
 No pseudopotential information found on rwf file.
 There are   528 symmetry adapted cartesian basis functions of A'  symmetry.
 There are   476 symmetry adapted cartesian basis functions of A"  symmetry.
 There are   504 symmetry adapted basis functions of A'  symmetry.
 There are   456 symmetry adapted basis functions of A"  symmetry.
   960 basis functions,  1632 primitive gaussians,  1004 cartesian basis functions
    73 alpha electrons       73 beta electrons
       nuclear repulsion energy      1494.3575060418 Hartrees.
 IExCor=  402 DFT=T Ex+Corr=B3LYP ExCW=0 ScaHFX=  0.200000
 ScaDFX=  0.800000  0.720000  1.000000  0.810000 ScalE2=  1.000000  1.000000
 IRadAn=      5 IRanWt=     -1 IRanGd=            0 ICorTp=0 IEmpDi=131
 NAtoms=   72 NActive=   72 NUniq=   40 SFac= 3.24D+00 NAtFMM=   60 NAOKFM=T Big=F
 Integral buffers will be    131072 words long.
 Raffenetti 2 integral format.
 Two-electron integral symmetry is turned on.
 R6Disp:  Grimme-D3 Dispersion energy=       -0.0303938888 Hartrees.
 Nuclear repulsion after empirical dispersion term =     1494.3271121530 Hartrees.
 No density basis found on file    718.
 Leave Link  301 at Wed Sep 27 16:59:25 2023, MaxMem=  3221225472 cpu:               2.6 elap:               0.1
 (Enter /home/center/opt/aarch64/apps/gaussian16/c01/g16/l302.exe)
 NPDir=0 NMtPBC=     1 NCelOv=     1 NCel=       1 NClECP=     1 NCelD=      1
         NCelK=      1 NCelE2=     1 NClLst=     1 CellRange=     0.0.
 One-electron integrals computed using PRISM.
 One-electron integral symmetry used in STVInt
 NBasis=   960 RedAO= T EigKep=  3.81D-05  NBF=   504   456
 NBsUse=   960 1.00D-06 EigRej= -1.00D+00 NBFU=   504   456
 Precomputing XC quadrature grid using
 IXCGrd= 4 IRadAn=           5 IRanWt=          -1 IRanGd=           0 AccXCQ= 0.00D+00.
 Generated NRdTot=       0 NPtTot=           0 NUsed=           0 NTot=          32
 NSgBfM=   991   989   991   991   991 MxSgAt=    72 MxSgA2=    72.
 Leave Link  302 at Wed Sep 27 16:59:29 2023, MaxMem=  3221225472 cpu:              60.0 elap:               1.6
 (Enter /home/center/opt/aarch64/apps/gaussian16/c01/g16/l303.exe)
 DipDrv:  MaxL=1.
 Leave Link  303 at Wed Sep 27 16:59:32 2023, MaxMem=  3221225472 cpu:              15.8 elap:               0.4
 (Enter /home/center/opt/aarch64/apps/gaussian16/c01/g16/l401.exe)
 ExpMin= 1.03D-01 ExpMax= 4.56D+03 ExpMxC= 6.82D+02 IAcc=3 IRadAn=         5 AccDes= 0.00D+00
 Harris functional with IExCor=  402 and IRadAn=       5 diagonalized for initial guess.
 HarFok:  IExCor=  402 AccDes= 0.00D+00 IRadAn=         5 IDoV= 1 UseB2=F ITyADJ=14
 ICtDFT=  3500011 ScaDFX=  1.000000  1.000000  1.000000  1.000000
 FoFCou: FMM=F IPFlag=           0 FMFlag=      100000 FMFlg1=        2000
         NFxFlg=           0 DoJE=T BraDBF=F KetDBF=T FulRan=T
         wScrn=  0.000000 ICntrl=       500 IOpCl=  0 I1Cent=   200000004 NGrid=           0
         NMat0=    1 NMatS0=      1 NMatT0=    0 NMatD0=    1 NMtDS0=    0 NMtDT0=    0
 Petite list used in FoFCou.
 Harris En= -847.066682881208    
 JPrj=0 DoOrth=F DoCkMO=F.
 Initial guess orbital symmetries:
       Occupied  (A") (A') (A') (A") (A") (A') (A") (A') (A') (A")
                 (A") (A') (A') (A') (A") (A') (A") (A') (A") (A')
                 (A') (A") (A') (A") (A') (A") (A') (A') (A") (A')
                 (A") (A") (A') (A') (A") (A") (A') (A") (A') (A')
                 (A') (A") (A") (A") (A') (A') (A") (A') (A') (A")
                 (A') (A") (A") (A') (A') (A") (A') (A") (A') (A")
                 (A") (A') (A') (A") (A') (A") (A') (A") (A') (A')
                 (A") (A") (A')
       Virtual   (A') (A") (A") (A') (A') (A") (A') (A") (A') (A")
                 (A') (A') (A") (A') (A") (A') (A') (A") (A') (A")
                 (A") (A") (A') (A') (A") (A') (A') (A') (A') (A")
                 (A') (A") (A") (A') (A') (A") (A') (A") (A") (A')
                 (A') (A") (A") (A') (A") (A') (A") (A') (A") (A')
                 (A') (A") (A') (A") (A') (A') (A") (A") (A') (A")
                 (A') (A') (A') (A') (A") (A") (A") (A") (A') (A")
                 (A') (A') (A') (A") (A') (A') (A") (A') (A') (A')
                 (A") (A") (A") (A") (A') (A') (A") (A') (A") (A')
                 (A") (A") (A') (A") (A') (A') (A") (A') (A") (A')
                 (A') (A') (A") (A') (A") (A") (A') (A') (A") (A')
                 (A') (A") (A') (A') (A") (A") (A") (A") (A') (A")
                 (A") (A') (A') (A") (A') (A") (A') (A') (A") (A')
                 (A") (A') (A') (A') (A") (A') (A") (A") (A') (A')
                 (A') (A") (A') (A") (A') (A") (A') (A") (A') (A")
                 (A") (A") (A') (A') (A") (A') (A") (A') (A') (A")
                 (A") (A') (A') (A') (A") (A') (A") (A') (A") (A")
                 (A") (A') (A") (A') (A') (A') (A") (A') (A') (A")
                 (A") (A") (A') (A') (A") (A") (A') (A") (A") (A')
                 (A') (A') (A') (A') (A") (A') (A") (A') (A") (A")
                 (A') (A") (A") (A') (A") (A') (A') (A") (A') (A")
                 (A") (A') (A") (A") (A') (A') (A") (A") (A') (A')
                 (A') (A") (A') (A") (A') (A") (A') (A') (A") (A')
                 (A") (A') (A') (A") (A") (A') (A") (A") (A') (A")
                 (A') (A') (A") (A") (A') (A') (A") (A') (A") (A")
                 (A") (A') (A") (A') (A') (A') (A') (A') (A") (A")
                 (A') (A") (A") (A') (A') (A') (A") (A") (A') (A")
                 (A') (A') (A") (A") (A") (A') (A") (A') (A") (A')
                 (A') (A") (A") (A') (A') (A") (A') (A") (A') (A")
                 (A') (A') (A') (A") (A') (A') (A") (A") (A') (A")
                 (A') (A') (A") (A') (A") (A') (A") (A") (A") (A')
                 (A') (A") (A") (A') (A") (A') (A') (A") (A') (A')
                 (A") (A') (A") (A") (A') (A') (A") (A') (A") (A')
                 (A') (A") (A') (A') (A") (A') (A") (A') (A") (A')
                 (A") (A") (A") (A') (A') (A") (A") (A') (A') (A')
                 (A") (A') (A") (A') (A') (A") (A') (A") (A') (A")
                 (A') (A') (A") (A') (A") (A") (A') (A") (A') (A')
                 (A") (A") (A") (A") (A') (A") (A') (A') (A") (A')
                 (A') (A") (A') (A") (A") (A') (A') (A") (A') (A")
                 (A') (A") (A") (A') (A') (A") (A') (A') (A") (A")
                 (A') (A') (A") (A") (A") (A') (A") (A') (A') (A")
                 (A") (A') (A') (A') (A') (A") (A") (A') (A') (A")
                 (A") (A") (A') (A") (A') (A") (A") (A') (A") (A")
                 (A') (A') (A') (A') (A') (A") (A') (A") (A") (A')
                 (A') (A") (A') (A') (A") (A') (A") (A") (A") (A')
                 (A") (A') (A') (A') (A") (A') (A') (A") (A") (A")
                 (A') (A") (A') (A") (A") (A') (A') (A") (A') (A')
                 (A") (A") (A') (A") (A') (A") (A") (A') (A') (A")
                 (A") (A') (A") (A') (A") (A') (A') (A") (A") (A')
                 (A") (A') (A") (A') (A') (A") (A') (A') (A") (A")
                 (A") (A') (A') (A") (A') (A") (A') (A") (A') (A')
                 (A") (A') (A") (A") (A") (A") (A') (A') (A') (A')
                 (A") (A') (A") (A") (A') (A') (A") (A') (A") (A')
                 (A") (A') (A') (A") (A') (A") (A') (A") (A') (A')
                 (A") (A") (A') (A') (A") (A') (A') (A") (A') (A")
                 (A") (A') (A") (A') (A") (A') (A") (A') (A") (A')
                 (A') (A") (A') (A') (A") (A") (A") (A') (A") (A")
                 (A') (A') (A') (A") (A') (A') (A") (A') (A') (A")
                 (A") (A') (A") (A") (A') (A") (A') (A") (A") (A')
                 (A') (A') (A') (A") (A') (A") (A') (A") (A') (A")
                 (A') (A") (A") (A") (A') (A') (A") (A') (A") (A')
                 (A") (A') (A') (A") (A') (A") (A') (A") (A') (A')
                 (A") (A') (A") (A") (A') (A") (A") (A') (A') (A")
                 (A") (A') (A") (A") (A") (A') (A') (A') (A') (A')
                 (A") (A") (A') (A") (A") (A') (A") (A') (A') (A")
                 (A') (A") (A') (A") (A') (A") (A") (A') (A") (A')
                 (A") (A') (A') (A") (A") (A') (A") (A") (A') (A')
                 (A') (A") (A") (A') (A') (A") (A') (A") (A') (A')
                 (A") (A') (A") (A') (A") (A') (A') (A") (A') (A")
                 (A') (A") (A') (A') (A") (A") (A') (A") (A') (A')
                 (A") (A") (A') (A") (A') (A") (A') (A') (A") (A')
                 (A") (A') (A") (A') (A") (A') (A') (A") (A') (A')
                 (A") (A') (A") (A") (A") (A') (A') (A') (A') (A")
                 (A") (A") (A') (A") (A') (A') (A") (A") (A") (A')
                 (A") (A') (A") (A') (A") (A') (A') (A") (A") (A')
                 (A') (A") (A') (A') (A") (A') (A") (A') (A") (A')
                 (A") (A') (A') (A") (A") (A') (A') (A') (A") (A")
                 (A") (A') (A') (A") (A') (A') (A") (A') (A") (A')
                 (A") (A') (A') (A") (A") (A") (A') (A") (A') (A')
                 (A") (A') (A") (A") (A') (A") (A') (A') (A') (A")
                 (A") (A') (A") (A') (A") (A') (A") (A') (A') (A")
                 (A") (A') (A') (A") (A') (A") (A") (A') (A") (A')
[...]
                 (A") (A") (A')
       Virtual   (A') (A") (A") (A') (A') (A") (A') (A') (A') (A")
                 (A") (A') (A") (A') (A") (A') (A") (A") (A') (A")
                 (A') (A') (A") (A') (A") (A') (A') (A') (A') (A")
                 (A") (A") (A") (A') (A') (A") (A') (A") (A') (A")
                 (A') (A') (A') (A") (A') (A") (A") (A') (A') (A")
                 (A") (A') (A') (A") (A') (A") (A") (A") (A') (A")
                 (A') (A') (A') (A') (A') (A") (A') (A') (A") (A")
                 (A") (A') (A') (A') (A") (A') (A") (A") (A") (A')
                 (A') (A") (A') (A") (A") (A') (A") (A') (A') (A')
                 (A') (A') (A") (A") (A") (A") (A') (A") (A') (A")
                 (A') (A') (A') (A") (A") (A') (A') (A") (A') (A")
                 (A') (A") (A") (A") (A') (A') (A") (A') (A') (A")
                 (A') (A") (A") (A') (A') (A") (A') (A") (A') (A")
                 (A") (A') (A') (A') (A') (A") (A") (A") (A') (A")
                 (A') (A") (A') (A") (A') (A') (A") (A") (A') (A")
                 (A') (A") (A') (A") (A') (A') (A") (A') (A") (A")
                 (A') (A") (A') (A') (A") (A") (A') (A") (A') (A")
                 (A') (A') (A") (A') (A') (A") (A") (A') (A') (A')
                 (A") (A') (A") (A") (A") (A") (A') (A") (A') (A')
                 (A") (A') (A") (A') (A') (A') (A") (A') (A") (A')
                 (A") (A") (A') (A') (A") (A") (A') (A') (A") (A')
                 (A') (A') (A') (A") (A") (A") (A") (A') (A') (A")
                 (A') (A") (A") (A') (A") (A') (A") (A') (A") (A')
                 (A") (A') (A') (A") (A') (A") (A") (A') (A') (A")
                 (A") (A') (A') (A") (A") (A') (A") (A") (A") (A')
                 (A') (A") (A') (A') (A") (A') (A') (A") (A') (A")
                 (A") (A') (A") (A') (A') (A") (A") (A") (A') (A')
                 (A") (A') (A') (A") (A") (A") (A') (A") (A') (A')
                 (A") (A') (A") (A') (A") (A') (A') (A') (A") (A')
                 (A") (A") (A') (A') (A") (A") (A') (A") (A') (A")
                 (A') (A') (A") (A") (A') (A') (A") (A') (A') (A')
                 (A") (A") (A') (A") (A') (A") (A') (A") (A') (A')
                 (A') (A") (A") (A") (A') (A") (A') (A') (A') (A")
                 (A") (A') (A") (A') (A') (A") (A') (A") (A") (A')
                 (A') (A") (A') (A") (A") (A') (A') (A") (A') (A")
                 (A') (A") (A') (A") (A') (A") (A") (A') (A') (A")
                 (A') (A") (A') (A') (A") (A") (A') (A") (A') (A')
                 (A") (A') (A") (A') (A') (A") (A') (A") (A') (A")
                 (A") (A') (A") (A') (A") (A') (A") (A') (A') (A")
                 (A") (A') (A") (A') (A') (A") (A") (A') (A') (A")
                 (A') (A") (A') (A") (A') (A') (A")
 The electronic state is 1-A'.
 Alpha  occ. eigenvalues --  -10.18931 -10.18930 -10.18896 -10.18895 -10.18848
 Alpha  occ. eigenvalues --  -10.18848 -10.18813 -10.18813 -10.17956 -10.17955
 Alpha  occ. eigenvalues --  -10.17920 -10.17920 -10.17919 -10.17919 -10.17875
 Alpha  occ. eigenvalues --  -10.17875 -10.17863 -10.17863 -10.17808 -10.17808
 Alpha  occ. eigenvalues --  -10.17781 -10.17781  -0.89340  -0.87865  -0.85549
 Alpha  occ. eigenvalues --   -0.82415  -0.79820  -0.78521  -0.78314  -0.75991
 Alpha  occ. eigenvalues --   -0.74255  -0.72901  -0.69196  -0.67344  -0.62728
 Alpha  occ. eigenvalues --   -0.62370  -0.61108  -0.59964  -0.59301  -0.57689
 Alpha  occ. eigenvalues --   -0.52709  -0.52573  -0.52293  -0.49654  -0.48513
 Alpha  occ. eigenvalues --   -0.47160  -0.46110  -0.45590  -0.45476  -0.43928
 Alpha  occ. eigenvalues --   -0.43182  -0.42578  -0.41808  -0.41572  -0.41386
 Alpha  occ. eigenvalues --   -0.40692  -0.40405  -0.39579  -0.38193  -0.36732
 Alpha  occ. eigenvalues --   -0.36341  -0.35550  -0.34094  -0.33809  -0.33058
 Alpha  occ. eigenvalues --   -0.32930  -0.31612  -0.29665  -0.28406  -0.26623
 Alpha  occ. eigenvalues --   -0.24364  -0.22582  -0.17855
 Alpha virt. eigenvalues --   -0.09755  -0.04464  -0.02747  -0.00147   0.02073
 Alpha virt. eigenvalues --    0.02370   0.03189   0.04746   0.04859   0.04871
 Alpha virt. eigenvalues --    0.06161   0.06575   0.07968   0.08162   0.08303
 Alpha virt. eigenvalues --    0.09607   0.10049   0.11524   0.11533   0.13796
 Alpha virt. eigenvalues --    0.14111   0.14670   0.18092   0.18194   0.18832
 Alpha virt. eigenvalues --    0.19391   0.22815   0.23002   0.24379   0.24942
 Alpha virt. eigenvalues --    0.25581   0.27528   0.27575   0.28012   0.28228
 Alpha virt. eigenvalues --    0.28947   0.29389   0.30158   0.30759   0.31175
 Alpha virt. eigenvalues --    0.32897   0.34528   0.36420   0.36484   0.37134
 Alpha virt. eigenvalues --    0.37503   0.37629   0.37651   0.38116   0.38643
 Alpha virt. eigenvalues --    0.39094   0.39439   0.39739   0.40236   0.40435
 Alpha virt. eigenvalues --    0.41918   0.41926   0.41940   0.42289   0.42318
 Alpha virt. eigenvalues --    0.42643   0.43748   0.44233   0.44835   0.45295
 Alpha virt. eigenvalues --    0.45683   0.45924   0.45953   0.46379   0.47165
 Alpha virt. eigenvalues --    0.47805   0.47809   0.47978   0.48073   0.48231
 Alpha virt. eigenvalues --    0.48568   0.49414   0.49572   0.51377   0.51846
 Alpha virt. eigenvalues --    0.52370   0.53118   0.53671   0.55998   0.57923
 Alpha virt. eigenvalues --    0.57955   0.59048   0.59201   0.60433   0.60585
 Alpha virt. eigenvalues --    0.60693   0.61101   0.61690   0.62105   0.62173
 Alpha virt. eigenvalues --    0.63432   0.63481   0.64458   0.64535   0.65533
 Alpha virt. eigenvalues --    0.66693   0.66910   0.67680   0.67724   0.70658
 Alpha virt. eigenvalues --    0.71305   0.71405   0.71494   0.72803   0.73989
 Alpha virt. eigenvalues --    0.75405   0.75894   0.76289   0.77801   0.77809
 Alpha virt. eigenvalues --    0.78943   0.79160   0.79723   0.81162   0.81509
 Alpha virt. eigenvalues --    0.82881   0.83001   0.84383   0.84585   0.84713
 Alpha virt. eigenvalues --    0.88087   0.89711   0.89765   0.91536   0.92083
 Alpha virt. eigenvalues --    0.92578   0.93749   0.95806   0.96107   0.96442
 Alpha virt. eigenvalues --    0.96590   0.96905   0.98547   1.00356   1.01118
 Alpha virt. eigenvalues --    1.02686   1.03027   1.03354   1.04405   1.05244
 Alpha virt. eigenvalues --    1.05439   1.05525   1.05950   1.07395   1.07547
 Alpha virt. eigenvalues --    1.07686   1.08438   1.10005   1.10036   1.12070
 Alpha virt. eigenvalues --    1.13223   1.13544   1.13650   1.14526   1.15341
 Alpha virt. eigenvalues --    1.17432   1.18332   1.19657   1.20432   1.23014
 Alpha virt. eigenvalues --    1.23618   1.27884   1.28234   1.30579   1.32076
 Alpha virt. eigenvalues --    1.32743   1.34942   1.37641   1.39236   1.39896
 Alpha virt. eigenvalues --    1.39942   1.40725   1.42751   1.43476   1.43554
 Alpha virt. eigenvalues --    1.45057   1.46086   1.47119   1.47538   1.48841
 Alpha virt. eigenvalues --    1.49280   1.49417   1.50258   1.50674   1.52268
 Alpha virt. eigenvalues --    1.52650   1.53402   1.54331   1.54372   1.54781
 Alpha virt. eigenvalues --    1.54807   1.57107   1.57715   1.58569   1.59882
 Alpha virt. eigenvalues --    1.60106   1.62692   1.63242   1.64856   1.66641
 Alpha virt. eigenvalues --    1.69292   1.69605   1.69709   1.70649   1.71804
 Alpha virt. eigenvalues --    1.72459   1.72619   1.73075   1.73096   1.73680
 Alpha virt. eigenvalues --    1.77494   1.78519   1.79157   1.79419   1.80511
 Alpha virt. eigenvalues --    1.81616   1.81887   1.82058   1.83581   1.84039
 Alpha virt. eigenvalues --    1.85487   1.87392   1.87456   1.87577   1.87728
 Alpha virt. eigenvalues --    1.88131   1.88613   1.90743   1.91387   1.92190
 Alpha virt. eigenvalues --    1.92193   1.92572   1.92670   1.93517   1.93938
 Alpha virt. eigenvalues --    1.94544   1.95483   1.97262   1.99429   2.00088
 Alpha virt. eigenvalues --    2.00602   2.01362   2.03019   2.05757   2.08293
 Alpha virt. eigenvalues --    2.09111   2.09256   2.09792   2.12192   2.14098
 Alpha virt. eigenvalues --    2.15528   2.15584   2.17200   2.19751   2.20833
 Alpha virt. eigenvalues --    2.21576   2.22525   2.23381   2.24503   2.26441
 Alpha virt. eigenvalues --    2.26972   2.27242   2.27719   2.28046   2.29391
 Alpha virt. eigenvalues --    2.33301   2.35725   2.39155   2.39384   2.40817
 Alpha virt. eigenvalues --    2.42649   2.43076   2.45776   2.45994   2.46870
 Alpha virt. eigenvalues --    2.51623   2.51954   2.53354   2.53485   2.55138
 Alpha virt. eigenvalues --    2.56159   2.58701   2.58838   2.59764   2.59776
 Alpha virt. eigenvalues --    2.60682   2.61147   2.61719   2.62222   2.63349
 Alpha virt. eigenvalues --    2.63999   2.64478   2.66054   2.66794   2.67121
 Alpha virt. eigenvalues --    2.67374   2.68356   2.68872   2.68876   2.69372
 Alpha virt. eigenvalues --    2.69557   2.69907   2.70083   2.70281   2.73482
 Alpha virt. eigenvalues --    2.74771   2.74836   2.76066   2.77101   2.77577
 Alpha virt. eigenvalues --    2.78232   2.78455   2.78850   2.80822   2.82359
 Alpha virt. eigenvalues --    2.85535   2.85993   2.86737   2.87294   2.90966
 Alpha virt. eigenvalues --    2.91783   2.92195   2.93676   2.95232   2.95887
 Alpha virt. eigenvalues --    2.99270   2.99858   3.03165   3.05604   3.06852
 Alpha virt. eigenvalues --    3.07371   3.15988   3.16029   3.16647   3.19843
 Alpha virt. eigenvalues --    3.20017   3.23601   3.29134   3.29680   3.31610
 Alpha virt. eigenvalues --    3.35095   3.35458   3.35677   3.35858   3.38023
 Alpha virt. eigenvalues --    3.39887   3.41413   3.44960   3.45362   3.47993
 Alpha virt. eigenvalues --    3.48278   3.50401   3.53073   3.57439   3.58649
 Alpha virt. eigenvalues --    3.61466   3.62620   3.63208   3.63698   3.65910
 Alpha virt. eigenvalues --    3.67534   3.67678   4.00384   4.00442   4.01859
 Alpha virt. eigenvalues --    4.02182   4.16133   4.16678   4.17360   4.21240
 Alpha virt. eigenvalues --    4.22396   4.22517   4.25488   4.38492   4.62290
 Alpha virt. eigenvalues --    4.79179   4.79740   4.80562   4.82562   4.83014
 Alpha virt. eigenvalues --   23.39176  23.54541  23.69085  23.77378  23.80419
 Alpha virt. eigenvalues --   23.81537  23.86099  23.89067  23.89154  23.92210
 Alpha virt. eigenvalues --   23.97563  23.98365  24.09049  24.09932  24.10529
 Alpha virt. eigenvalues --   24.12220  24.13779  24.14375  24.15775  24.15810
 Alpha virt. eigenvalues --   24.20452  24.20497
          Condensed to atoms (all electrons):
 Mulliken charges:
               1
     1  C    0.000000
     2  C    0.000000
     3  C    0.000000
     4  C    0.000000
     5  C    0.000000
     6  C    0.000000
     7  C    0.000000
     8  C    0.000000
     9  C    0.000000
    10  C    0.000000
    11  H    0.000000
    12  H    0.000000
    13  H    0.000000
    14  H    0.000000
    15  H    0.000000
    16  H    0.000000
    17  C    0.000000
    18  C    0.000000
    19  C    0.000000
    20  C    0.000000
    21  H    0.000000
    22  H    0.000000
    23  C    0.000000
    24  C    0.000000
    25  C    0.000000
    26  C    0.000000
    27  H    0.000000
    28  H    0.000000
    29  C    0.000000
    30  C    0.000000
    31  C    0.000000
    32  C    0.000000
    33  H    0.000000
    34  H    0.000000
    35  H    0.000000
    36  H    0.000000
    37  C   -0.059168
    38  C   -0.059168
    39  C   -0.055977
    40  C   -0.055977
    41  C   -0.092198
    42  C   -0.092198
    43  C   -0.016525
    44  C   -0.054498
    45  C   -0.016525
    46  C   -0.054498
    47  H    0.082122
    48  H    0.074853
    49  H    0.074853
    50  H    0.082122
    51  H    0.094847
    52  H    0.094847
    53  C   -0.020341
    54  C   -0.054498
    55  C   -0.020341
    56  C   -0.054498
    57  H    0.073428
    58  H    0.073428
    59  C   -0.016525
    60  C   -0.059168
    61  C   -0.016525
    62  C   -0.059168
    63  H    0.074853
    64  H    0.074853
    65  C   -0.055977
    66  C   -0.092198
    67  C   -0.055977
    68  C   -0.092198
    69  H    0.082122
    70  H    0.094847
    71  H    0.094847
    72  H    0.082122
 Sum of Mulliken charges =   0.00000
 Mulliken charges with hydrogens summed into heavy atoms:
               1
     1  C    0.000000
     2  C    0.000000
     3  C    0.000000
     4  C    0.000000
     5  C    0.000000
     6  C    0.000000
     7  C    0.000000
     8  C    0.000000
     9  C    0.000000
    10  C    0.000000
    17  C    0.000000
    18  C    0.000000
    19  C    0.000000
    20  C    0.000000
    23  C    0.000000
    24  C    0.000000
    25  C    0.000000
    26  C    0.000000
    29  C    0.000000
    30  C    0.000000
    31  C    0.000000
    32  C    0.000000
    37  C   -0.059168
    38  C   -0.059168
    39  C    0.026144
    40  C    0.026144
    41  C    0.002649
    42  C    0.002649
    43  C    0.058328
    44  C   -0.054498
    45  C    0.058328
    46  C   -0.054498
    53  C    0.053087
    54  C   -0.054498
    55  C    0.053087
    56  C   -0.054498
    59  C    0.058328
    60  C   -0.059168
    61  C    0.058328
    62  C   -0.059168
    65  C    0.026144
    66  C    0.002649
    67  C    0.026144
    68  C    0.002649
         Mulliken charges condensed to fragments:
      1      0.000000
      2      0.000000
 Electronic spatial extent (au):  <R**2>=          17640.1928
 Charge=              0.0000 electrons
 Dipole moment (field-independent basis, Debye):
    X=              0.0000    Y=              0.0000    Z=              0.0000  Tot=              0.0000
 Quadrupole moment (field-independent basis, Debye-Ang):
   XX=           -136.3921   YY=           -110.7480   ZZ=           -109.0115
   XY=              0.0000   XZ=              0.0000   YZ=              0.0000
 Traceless Quadrupole moment (field-independent basis, Debye-Ang):
   XX=            -17.6749   YY=              7.9692   ZZ=              9.7057
   XY=              0.0000   XZ=              0.0000   YZ=              0.0000
 Octapole moment (field-independent basis, Debye-Ang**2):
  XXX=           1157.3250  YYY=            939.7282  ZZZ=              0.0000  XYY=            313.2428
  XXY=            385.7750  XXZ=              0.0000  XZZ=            308.3310  YZZ=            308.3310
  YYZ=              0.0000  XYZ=              0.0000
 Hexadecapole moment (field-independent basis, Debye-Ang**3):
 XXXX=          -6701.2227 YYYY=          -6432.6223 ZZZZ=         -10461.4325 XXXY=          -3273.4094
 XXXZ=              0.0000 YYYX=          -2657.9527 YYYZ=              0.0000 ZZZX=              0.0000
 ZZZY=              0.0000 XXYY=          -2233.5361 XXZZ=          -3080.0238 YYZZ=          -2841.3062
 XXYZ=              0.0000 YYXZ=              0.0000 ZZXY=           -872.0918
 N-N= 1.494327110001D+03 E-N=-4.953709171465D+03  KE= 8.433374904125D+02
 Symmetry A'   KE= 4.567052305076D+02
 Symmetry A"   KE= 3.866322599049D+02
 No NMR shielding tensors so no spin-rotation constants.
 Leave Link  601 at Wed Sep 27 17:16:15 2023, MaxMem=  3221225472 cpu:              20.4 elap:               0.5
 (Enter /home/center/opt/aarch64/apps/gaussian16/c01/g16/l122.exe)
 CPIOFr:  IOpCl= 0 IRwI=-1 IRwCP=  731 ICalc=  4 LCPTot=     1419224 Len1MO=     3708034 IndFrg=    19959394
 Restoring MOs from calculation   1 to rwf.
 CPIOFr:  IOpCl= 0 IRwI=-2 IRwCP=  731 ICalc=  0 LCPTot=     1419224 Len1MO=     3708034 IndFrg=     5127258
 Counterpoise corrected energy =   -1694.041458335807
                   BSSE energy =       0.000021983380
              sum of fragments =   -1694.039683044266
           complexation energy =      -1.13 kcal/mole (raw)
           complexation energy =      -1.11 kcal/mole (corrected)
 Leave Link  122 at Wed Sep 27 17:16:18 2023, MaxMem=  3221225472 cpu:               8.3 elap:               0.4
 (Enter /home/center/opt/aarch64/apps/gaussian16/c01/g16/l9999.exe)

 Test job not archived.
 1\1\GINC-FX0545\SP\RB3LYP\6-311G(d,p)\C44H28\Z40145W\27-Sep-2023\0\\#P
  TEST b3lyp/6-311G** EmpiricalDispersion=GD3 counterpoise=2\\pentacene
 _A1=0_A2=0_A3=45_p2\\0,1\C,0,-0.5039478476,0.5239478476,-3.6612755801\
 C,0,0.5239480325,-0.5039480325,-3.6612755629\C,0,-0.9861248463,1.00612
 48463,-4.9235927708\C,0,1.0061250889,-0.9861250889,-4.9235926697\C,0,-
 0.4963213507,0.5163213507,-6.096356521\C,0,0.5163216812,-0.4963216812,
 -6.0963564796\C,0,-0.9844684311,1.0044684311,-2.4533174875\C,0,-0.5044
 88426,0.524488426,-1.2140288145\C,0,1.0044685359,-0.9844685359,-2.4533
 173917\C,0,0.5244885437,-0.5044885437,-1.2140288362\H,0,-1.7533559667,
 1.7733559667,-4.9232600459\H,0,-1.7521866813,1.7721866813,-2.453928581
 5\H,0,1.7721859268,-1.7521859268,-2.4539284818\H,0,1.7733558421,-1.753
 3558421,-4.9232597785\H,0,0.8905568758,-0.8705568758,-7.0425276922\H,0
 ,-0.8705565046,0.8905565046,-7.042527775\C,0,-0.9848184961,1.004818496
 1,0.0099998782\C,0,-0.5044883957,0.5244883957,1.2340295553\C,0,1.00481
 85643,-0.9848185643,0.0099998696\C,0,0.5244885146,-0.5044885146,1.2340
 295261\H,0,-1.7524699697,1.7724699697,0.0099999205\H,0,1.772468921,-1.
 752468921,0.0099999641\C,0,-0.9844683048,1.0044683048,2.4733171385\C,0
 ,-0.5039477114,0.5239477114,3.681276331\C,0,1.0044684211,-0.9844684211
 ,2.4733170835\C,0,0.5239479079,-0.5039479079,3.6812763217\H,0,-1.75218
 65527,1.7721865527,2.4739285326\H,0,1.7721858092,-1.7521858092,2.47392
 83796\C,0,-0.9861245177,1.0061245177,4.9435920588\C,0,-0.4963209372,0.
 5163209372,6.116356633\C,0,1.0061247659,-0.9861247659,4.9435919377\C,0
 ,0.5163212637,-0.4963212637,6.1163566075\H,0,-1.7533556504,1.773355650
 4,4.9432601504\H,0,-0.8705567426,0.8905567426,7.0625274368\H,0,0.89055
 70967,-0.8705570967,7.0625272142\H,0,1.7733555414,-1.7533555414,4.9432
 599297\C,0,7.4960521524,0.5239478476,-3.6612755801\C,0,8.5239480325,-0
 .5039480325,-3.6612755629\C,0,7.0138751537,1.0061248463,-4.9235927708\
 C,0,9.0061250889,-0.9861250889,-4.9235926697\C,0,7.5036786493,0.516321
 3507,-6.096356521\C,0,8.5163216812,-0.4963216812,-6.0963564796\C,0,7.0
 155315689,1.0044684311,-2.4533174875\C,0,7.495511574,0.524488426,-1.21
 40288145\C,0,9.0044685359,-0.9844685359,-2.4533173917\C,0,8.5244885437
 ,-0.5044885437,-1.2140288362\H,0,6.2466440333,1.7733559667,-4.92326004
 59\H,0,6.2478133187,1.7721866813,-2.4539285815\H,0,9.7721859268,-1.752
 1859268,-2.4539284818\H,0,9.7733558421,-1.7533558421,-4.9232597785\H,0
 ,8.8905568758,-0.8705568758,-7.0425276922\H,0,7.1294434954,0.890556504
 6,-7.042527775\C,0,7.0151815039,1.0048184961,0.0099998782\C,0,7.495511
 6043,0.5244883957,1.2340295553\C,0,9.0048185643,-0.9848185643,0.009999
 8696\C,0,8.5244885146,-0.5044885146,1.2340295261\H,0,6.2475300303,1.77
 24699697,0.0099999205\H,0,9.772468921,-1.752468921,0.0099999641\C,0,7.
 0155316952,1.0044683048,2.4733171385\C,0,7.4960522886,0.5239477114,3.6
 81276331\C,0,9.0044684211,-0.9844684211,2.4733170835\C,0,8.5239479079,
 -0.5039479079,3.6812763217\H,0,6.2478134473,1.7721865527,2.4739285326\
 H,0,9.7721858092,-1.7521858092,2.4739283796\C,0,7.0138754823,1.0061245
 177,4.9435920588\C,0,7.5036790628,0.5163209372,6.116356633\C,0,9.00612
 47659,-0.9861247659,4.9435919377\C,0,8.5163212637,-0.4963212637,6.1163
 566075\H,0,6.2466443496,1.7733556504,4.9432601504\H,0,7.1294432574,0.8
 905567426,7.0625274368\H,0,8.8905570967,-0.8705570967,7.0625272142\H,0
 ,9.7733555414,-1.7533555414,4.9432599297\\Version=Fujitsu-Arm-G16RevC.
 01\State=1-A'\HF=-847.0198415\RMSD=3.186e-09\Dipole=0.0000189,-0.00001
 87,0.\Quadrupole=-7.8783043,-6.5002268,14.3785311,-18.3248264,0.,0.\PG
 =CS [SG(C4H4),X(C40H24)]\\@


 I FIND THAT THE THREE TRULY GREAT TIMES FOR THINKING THOUGHTS
 ARE WHEN I AM STANDING IN THE SHOWER, SITTING ON THE JOHN, OR WALKING.

                                    -- COLIN FLETCHER
 Job cpu time:       0 days  2 hours 44 minutes 33.9 seconds.
 Elapsed time:       0 days  0 hours  4 minutes 20.3 seconds.
 File lengths (MBytes):  RWF=    718 Int=      0 D2E=      0 Chk=    208 Scr=      1
 Normal termination of Gaussian 16 at Wed Sep 27 17:16:24 2023.
