 Entering Gaussian System, Link 0=g16
 Initial command:
 /home/center/opt/aarch64/apps/gaussian16/c01/g16/l1.exe "/data/tmp/Gtmp/1006938/Gau-50.inp" -scrdir="/data/tmp/Gtmp/1006938/"
 Entering Link 1 = /home/center/opt/aarch64/apps/gaussian16/c01/g16/l1.exe PID=        51.
  
 Copyright (c) 1988-2019, Gaussian, Inc.  All Rights Reserved.
  
 This is part of the Gaussian(R) 16 program.  It is based on
 the Gaussian(R) 09 system (copyright 2009, Gaussian, Inc.),
 the Gaussian(R) 03 system (copyright 2003, Gaussian, Inc.),
 the Gaussian(R) 98 system (copyright 1998, Gaussian, Inc.),
 the Gaussian(R) 94 system (copyright 1995, Gaussian, Inc.),
 the Gaussian 92(TM) system (copyright 1992, Gaussian, Inc.),
 the Gaussian 90(TM) system (copyright 1990, Gaussian, Inc.),
 the Gaussian 88(TM) system (copyright 1988, Gaussian, Inc.),
 the Gaussian 86(TM) system (copyright 1986, Carnegie Mellon
 University), and the Gaussian 82(TM) system (copyright 1983,
 Carnegie Mellon University). Gaussian is a federally registered
 trademark of Gaussian, Inc.
  
 This software contains proprietary and confidential information,
 including trade secrets, belonging to Gaussian, Inc.
  
 This software is provided under written license and may be
 used, copied, transmitted, or stored only in accord with that
 written license.
  
 The following legend is applicable only to US Government
 contracts under FAR:
  
                    RESTRICTED RIGHTS LEGEND
  
 Use, reproduction and disclosure by the US Government is
 subject to restrictions as set forth in subparagraphs (a)
 and (c) of the Commercial Computer Software - Restricted
 Rights clause in FAR 52.227-19.
  
 Gaussian, Inc.
 340 Quinnipiac St., Bldg. 40, Wallingford CT 06492
  
  
 ---------------------------------------------------------------
 Warning -- This program may not be used in any manner that
 competes with the business of Gaussian, Inc. or will provide
 assistance to any competitor of Gaussian, Inc.  The licensee
 of this program is prohibited from giving any competitor of
 Gaussian, Inc. access to this program.  By using this program,
 the user acknowledges that Gaussian, Inc. is engaged in the
 business of creating and licensing software in the field of
 computational chemistry and represents and warrants to the
 licensee that it is not a competitor of Gaussian, Inc. and that
 it will not use this program in any manner prohibited above.
 ---------------------------------------------------------------
  

 Cite this work as:
 Gaussian 16, Revision C.01,
 M. J. Frisch, G. W. Trucks, H. B. Schlegel, G. E. Scuseria, 
 M. A. Robb, J. R. Cheeseman, G. Scalmani, V. Barone, 
 G. A. Petersson, H. Nakatsuji, X. Li, M. Caricato, A. V. Marenich, 
 J. Bloino, B. G. Janesko, R. Gomperts, B. Mennucci, H. P. Hratchian, 
 J. V. Ortiz, A. F. Izmaylov, J. L. Sonnenberg, D. Williams-Young, 
 F. Ding, F. Lipparini, F. Egidi, J. Goings, B. Peng, A. Petrone, 
 T. Henderson, D. Ranasinghe, V. G. Zakrzewski, J. Gao, N. Rega, 
 G. Zheng, W. Liang, M. Hada, M. Ehara, K. Toyota, R. Fukuda, 
 J. Hasegawa, M. Ishida, T. Nakajima, Y. Honda, O. Kitao, H. Nakai, 
 T. Vreven, K. Throssell, J. A. Montgomery, Jr., J. E. Peralta, 
 F. Ogliaro, M. J. Bearpark, J. J. Heyd, E. N. Brothers, K. N. Kudin, 
 V. N. Staroverov, T. A. Keith, R. Kobayashi, J. Normand, 
 K. Raghavachari, A. P. Rendell, J. C. Burant, S. S. Iyengar, 
 J. Tomasi, M. Cossi, J. M. Millam, M. Klene, C. Adamo, R. Cammi, 
 J. W. Ochterski, R. L. Martin, K. Morokuma, O. Farkas, 
 J. B. Foresman, and D. J. Fox, Gaussian, Inc., Wallingford CT, 2019.
 
 ************************************************
 Gaussian 16:  Fujitsu-Arm-G16RevC.01  3-Jul-2019
                   27-Sep-2023 
 ************************************************
 %mem=24GB
 %nproc=42
 Will use up to   42 processors via shared memory.
 -------------------------------------------------------------
 #P TEST b3lyp/6-311G** EmpiricalDispersion=GD3 counterpoise=2
 -------------------------------------------------------------
 1/38=1,62=2,172=1/1;
 2/12=2,17=6,18=5,40=1/2;
 1/38=1,53=2,62=2,63=1/22;
 3/5=4,6=6,7=101,11=2,25=1,30=1,74=-5,124=31/1,2,3;
 4//1;
 5/5=2,38=5/2;
 6/7=2,8=2,9=2,10=2,28=1/1;
 1/53=2,62=2,63=1/22;
 3/5=7,6=11,7=101,11=2,25=1,30=1,74=-5,82=7,124=31/1,2,3;
 4//1;
 5/5=2,38=5/2;
 6/7=2,8=2,9=2,10=2,28=1/1;
 1/53=2,62=2,63=1/22(-4);
 99/5=1,9=1/99;
 Leave Link    1 at Wed Sep 27 16:37:39 2023, MaxMem=  3221225472 cpu:               1.8 elap:               0.2
 (Enter /home/center/opt/aarch64/apps/gaussian16/c01/g16/l101.exe)
 ----------------------------
 pentacene_A1=0_A2=0_A3=45_t1
 ----------------------------
 Symbolic Z-matrix:
 Charge =  0 Multiplicity = 1 in supermolecule
 Charge =  0 Multiplicity = 1 in fragment      1.
 Charge =  0 Multiplicity = 1 in fragment      2.
 C(Fragment=1)        -0.50395   0.52395  -3.66128 
 C(Fragment=1)         0.52395  -0.50395  -3.66128 
 C(Fragment=1)        -0.98612   1.00612  -4.92359 
 C(Fragment=1)         1.00613  -0.98613  -4.92359 
 C(Fragment=1)        -0.49632   0.51632  -6.09636 
 C(Fragment=1)         0.51632  -0.49632  -6.09636 
 C(Fragment=1)        -0.98447   1.00447  -2.45332 
 C(Fragment=1)        -0.50449   0.52449  -1.21403 
 C(Fragment=1)         1.00447  -0.98447  -2.45332 
 C(Fragment=1)         0.52449  -0.50449  -1.21403 
 H(Fragment=1)        -1.75336   1.77336  -4.92326 
 H(Fragment=1)        -1.75219   1.77219  -2.45393 
 H(Fragment=1)         1.77219  -1.75219  -2.45393 
 H(Fragment=1)         1.77336  -1.75336  -4.92326 
 H(Fragment=1)         0.89056  -0.87056  -7.04253 
 H(Fragment=1)        -0.87056   0.89056  -7.04253 
 C(Fragment=1)        -0.98482   1.00482   0.01 
 C(Fragment=1)        -0.50449   0.52449   1.23403 
 C(Fragment=1)         1.00482  -0.98482   0.01 
 C(Fragment=1)         0.52449  -0.50449   1.23403 
 H(Fragment=1)        -1.75247   1.77247   0.01 
 H(Fragment=1)         1.77247  -1.75247   0.01 
 C(Fragment=1)        -0.98447   1.00447   2.47332 
 C(Fragment=1)        -0.50395   0.52395   3.68128 
 C(Fragment=1)         1.00447  -0.98447   2.47332 
 C(Fragment=1)         0.52395  -0.50395   3.68128 
 H(Fragment=1)        -1.75219   1.77219   2.47393 
 H(Fragment=1)         1.77219  -1.75219   2.47393 
 C(Fragment=1)        -0.98612   1.00612   4.94359 
 C(Fragment=1)        -0.49632   0.51632   6.11636 
 C(Fragment=1)         1.00612  -0.98612   4.94359 
 C(Fragment=1)         0.51632  -0.49632   6.11636 
 H(Fragment=1)        -1.75336   1.77336   4.94326 
 H(Fragment=1)        -0.87056   0.89056   7.06253 
 H(Fragment=1)         0.89056  -0.87056   7.06253 
 H(Fragment=1)         1.77336  -1.75336   4.94326 
 C(Fragment=2)         3.27395   5.52395  -3.66128 
 C(Fragment=2)         2.24605   4.49605  -3.66128 
 C(Fragment=2)         3.75612   6.00612  -4.92359 
 C(Fragment=2)         1.76387   4.01387  -4.92359 
 C(Fragment=2)         3.26632   5.51632  -6.09636 
 C(Fragment=2)         2.25368   4.50368  -6.09636 
 C(Fragment=2)         3.75447   6.00447  -2.45332 
 C(Fragment=2)         3.27449   5.52449  -1.21403 
 C(Fragment=2)         1.76553   4.01553  -2.45332 
 C(Fragment=2)         2.24551   4.49551  -1.21403 
 H(Fragment=2)         4.52336   6.77336  -4.92326 
 H(Fragment=2)         4.52219   6.77219  -2.45393 
 H(Fragment=2)         0.99781   3.24781  -2.45393 
 H(Fragment=2)         0.99664   3.24664  -4.92326 
 H(Fragment=2)         1.87944   4.12944  -7.04253 
 H(Fragment=2)         3.64056   5.89056  -7.04253 
 C(Fragment=2)         3.75482   6.00482   0.01 
 C(Fragment=2)         3.27449   5.52449   1.23403 
 C(Fragment=2)         1.76518   4.01518   0.01 
 C(Fragment=2)         2.24551   4.49551   1.23403 
 H(Fragment=2)         4.52247   6.77247   0.01 
 H(Fragment=2)         0.99753   3.24753   0.01 
 C(Fragment=2)         3.75447   6.00447   2.47332 
 C(Fragment=2)         3.27395   5.52395   3.68128 
 C(Fragment=2)         1.76553   4.01553   2.47332 
 C(Fragment=2)         2.24605   4.49605   3.68128 
 H(Fragment=2)         4.52219   6.77219   2.47393 
 H(Fragment=2)         0.99781   3.24781   2.47393 
 C(Fragment=2)         3.75612   6.00612   4.94359 
 C(Fragment=2)         3.26632   5.51632   6.11636 
 C(Fragment=2)         1.76388   4.01388   4.94359 
 C(Fragment=2)         2.25368   4.50368   6.11636 
 H(Fragment=2)         4.52336   6.77336   4.94326 
 H(Fragment=2)         3.64056   5.89056   7.06253 
 H(Fragment=2)         1.87944   4.12944   7.06253 
 H(Fragment=2)         0.99664   3.24664   4.94326 
 
 ITRead=  0  0  0  0  0  0  0  0  0  0  0  0  0  0  0  0  0  0  0  0
 ITRead=  0  0  0  0  0  0  0  0  0  0  0  0  0  0  0  0  0  0  0  0
 ITRead=  0  0  0  0  0  0  0  0  0  0  0  0  0  0  0  0  0  0  0  0
 ITRead=  0  0  0  0  0  0  0  0  0  0  0  0
 MicOpt= -1 -1 -1 -1 -1 -1 -1 -1 -1 -1 -1 -1 -1 -1 -1 -1 -1 -1 -1 -1
 MicOpt= -1 -1 -1 -1 -1 -1 -1 -1 -1 -1 -1 -1 -1 -1 -1 -1 -1 -1 -1 -1
 MicOpt= -1 -1 -1 -1 -1 -1 -1 -1 -1 -1 -1 -1 -1 -1 -1 -1 -1 -1 -1 -1
 MicOpt= -1 -1 -1 -1 -1 -1 -1 -1 -1 -1 -1 -1
 NAtoms=     72 NQM=       72 NQMF=       0 NMMI=      0 NMMIF=      0
                NMic=       0 NMicF=      0.
                    Isotopes and Nuclear Properties:
 (Nuclear quadrupole moments (NQMom) in fm**2, nuclear magnetic moments (NMagM)
  in nuclear magnetons)

  Atom         1           2           3           4           5           6           7           8           9          10
 IAtWgt=          12          12          12          12          12          12          12          12          12          12
 AtmWgt=  12.0000000  12.0000000  12.0000000  12.0000000  12.0000000  12.0000000  12.0000000  12.0000000  12.0000000  12.0000000
 NucSpn=           0           0           0           0           0           0           0           0           0           0
 AtZEff=   0.0000000   0.0000000   0.0000000   0.0000000   0.0000000   0.0000000   0.0000000   0.0000000   0.0000000   0.0000000
 NQMom=    0.0000000   0.0000000   0.0000000   0.0000000   0.0000000   0.0000000   0.0000000   0.0000000   0.0000000   0.0000000
 NMagM=    0.0000000   0.0000000   0.0000000   0.0000000   0.0000000   0.0000000   0.0000000   0.0000000   0.0000000   0.0000000
 AtZNuc=   6.0000000   6.0000000   6.0000000   6.0000000   6.0000000   6.0000000   6.0000000   6.0000000   6.0000000   6.0000000

  Atom        11          12          13          14          15          16          17          18          19          20
 IAtWgt=           1           1           1           1           1           1          12          12          12          12
 AtmWgt=   1.0078250   1.0078250   1.0078250   1.0078250   1.0078250   1.0078250  12.0000000  12.0000000  12.0000000  12.0000000
 NucSpn=           1           1           1           1           1           1           0           0           0           0
 AtZEff=   0.0000000   0.0000000   0.0000000   0.0000000   0.0000000   0.0000000   0.0000000   0.0000000   0.0000000   0.0000000
 NQMom=    0.0000000   0.0000000   0.0000000   0.0000000   0.0000000   0.0000000   0.0000000   0.0000000   0.0000000   0.0000000
 NMagM=    2.7928460   2.7928460   2.7928460   2.7928460   2.7928460   2.7928460   0.0000000   0.0000000   0.0000000   0.0000000
 AtZNuc=   1.0000000   1.0000000   1.0000000   1.0000000   1.0000000   1.0000000   6.0000000   6.0000000   6.0000000   6.0000000

  Atom        21          22          23          24          25          26          27          28          29          30
 IAtWgt=           1           1          12          12          12          12           1           1          12          12
 AtmWgt=   1.0078250   1.0078250  12.0000000  12.0000000  12.0000000  12.0000000   1.0078250   1.0078250  12.0000000  12.0000000
 NucSpn=           1           1           0           0           0           0           1           1           0           0
 AtZEff=   0.0000000   0.0000000   0.0000000   0.0000000   0.0000000   0.0000000   0.0000000   0.0000000   0.0000000   0.0000000
 NQMom=    0.0000000   0.0000000   0.0000000   0.0000000   0.0000000   0.0000000   0.0000000   0.0000000   0.0000000   0.0000000
 NMagM=    2.7928460   2.7928460   0.0000000   0.0000000   0.0000000   0.0000000   2.7928460   2.7928460   0.0000000   0.0000000
 AtZNuc=   1.0000000   1.0000000   6.0000000   6.0000000   6.0000000   6.0000000   1.0000000   1.0000000   6.0000000   6.0000000

  Atom        31          32          33          34          35          36          37          38          39          40
 IAtWgt=          12          12           1           1           1           1          12          12          12          12
 AtmWgt=  12.0000000  12.0000000   1.0078250   1.0078250   1.0078250   1.0078250  12.0000000  12.0000000  12.0000000  12.0000000
 NucSpn=           0           0           1           1           1           1           0           0           0           0
 AtZEff=   0.0000000   0.0000000   0.0000000   0.0000000   0.0000000   0.0000000   0.0000000   0.0000000   0.0000000   0.0000000
 NQMom=    0.0000000   0.0000000   0.0000000   0.0000000   0.0000000   0.0000000   0.0000000   0.0000000   0.0000000   0.0000000
 NMagM=    0.0000000   0.0000000   2.7928460   2.7928460   2.7928460   2.7928460   0.0000000   0.0000000   0.0000000   0.0000000
 AtZNuc=   6.0000000   6.0000000   1.0000000   1.0000000   1.0000000   1.0000000   6.0000000   6.0000000   6.0000000   6.0000000

  Atom        41          42          43          44          45          46          47          48          49          50
 IAtWgt=          12          12          12          12          12          12           1           1           1           1
 AtmWgt=  12.0000000  12.0000000  12.0000000  12.0000000  12.0000000  12.0000000   1.0078250   1.0078250   1.0078250   1.0078250
 NucSpn=           0           0           0           0           0           0           1           1           1           1
 AtZEff=   0.0000000   0.0000000   0.0000000   0.0000000   0.0000000   0.0000000   0.0000000   0.0000000   0.0000000   0.0000000
 NQMom=    0.0000000   0.0000000   0.0000000   0.0000000   0.0000000   0.0000000   0.0000000   0.0000000   0.0000000   0.0000000
 NMagM=    0.0000000   0.0000000   0.0000000   0.0000000   0.0000000   0.0000000   2.7928460   2.7928460   2.7928460   2.7928460
 AtZNuc=   6.0000000   6.0000000   6.0000000   6.0000000   6.0000000   6.0000000   1.0000000   1.0000000   1.0000000   1.0000000

  Atom        51          52          53          54          55          56          57          58          59          60
 IAtWgt=           1           1          12          12          12          12           1           1          12          12
 AtmWgt=   1.0078250   1.0078250  12.0000000  12.0000000  12.0000000  12.0000000   1.0078250   1.0078250  12.0000000  12.0000000
 NucSpn=           1           1           0           0           0           0           1           1           0           0
 AtZEff=   0.0000000   0.0000000   0.0000000   0.0000000   0.0000000   0.0000000   0.0000000   0.0000000   0.0000000   0.0000000
 NQMom=    0.0000000   0.0000000   0.0000000   0.0000000   0.0000000   0.0000000   0.0000000   0.0000000   0.0000000   0.0000000
 NMagM=    2.7928460   2.7928460   0.0000000   0.0000000   0.0000000   0.0000000   2.7928460   2.7928460   0.0000000   0.0000000
 AtZNuc=   1.0000000   1.0000000   6.0000000   6.0000000   6.0000000   6.0000000   1.0000000   1.0000000   6.0000000   6.0000000

  Atom        61          62          63          64          65          66          67          68          69          70
 IAtWgt=          12          12           1           1          12          12          12          12           1           1
 AtmWgt=  12.0000000  12.0000000   1.0078250   1.0078250  12.0000000  12.0000000  12.0000000  12.0000000   1.0078250   1.0078250
 NucSpn=           0           0           1           1           0           0           0           0           1           1
 AtZEff=   0.0000000   0.0000000   0.0000000   0.0000000   0.0000000   0.0000000   0.0000000   0.0000000   0.0000000   0.0000000
 NQMom=    0.0000000   0.0000000   0.0000000   0.0000000   0.0000000   0.0000000   0.0000000   0.0000000   0.0000000   0.0000000
 NMagM=    0.0000000   0.0000000   2.7928460   2.7928460   0.0000000   0.0000000   0.0000000   0.0000000   2.7928460   2.7928460
 AtZNuc=   6.0000000   6.0000000   1.0000000   1.0000000   6.0000000   6.0000000   6.0000000   6.0000000   1.0000000   1.0000000

  Atom        71          72
 IAtWgt=           1           1
 AtmWgt=   1.0078250   1.0078250
 NucSpn=           1           1
 AtZEff=   0.0000000   0.0000000
 NQMom=    0.0000000   0.0000000
 NMagM=    2.7928460   2.7928460
 AtZNuc=   1.0000000   1.0000000
 Leave Link  101 at Wed Sep 27 16:37:41 2023, MaxMem=  3221225472 cpu:               2.5 elap:               0.1
 (Enter /home/center/opt/aarch64/apps/gaussian16/c01/g16/l202.exe)
 Stoichiometry    C44H28
 Framework group  CS[SG(C4H4),X(C40H24)]
 Deg. of freedom   109
 Full point group                 CS      NOp   2
 Largest Abelian subgroup         CS      NOp   2
 Largest concise Abelian subgroup CS      NOp   2
                         Standard orientation:                         
 ---------------------------------------------------------------------
 Center     Atomic      Atomic             Coordinates (Angstroms)
 Number     Number       Type             X           Y           Z
 ---------------------------------------------------------------------
      1          6           0       -0.068663   -2.740039    3.671276
      2          6           0       -1.522327   -2.740039    3.671276
      3          6           0        0.613238   -2.740039    4.933593
      4          6           0       -2.204229   -2.740039    4.933593
      5          6           0       -0.079449   -2.740039    6.106357
      6          6           0       -1.511542   -2.740039    6.106357
      7          6           0        0.610896   -2.740039    2.463318
      8          6           0       -0.067899   -2.740039    1.224029
      9          6           0       -2.201886   -2.740039    2.463317
     10          6           0       -1.523092   -2.740039    1.224029
     11          1           0        1.698267   -2.740039    4.933260
     12          1           0        1.696613   -2.740039    2.463929
     13          1           0       -3.287602   -2.740039    2.463929
     14          1           0       -3.289257   -2.740039    4.933260
     15          1           0       -2.040791   -2.740039    7.052528
     16          1           0        0.449800   -2.740039    7.052528
     17          6           0        0.611391   -2.740039    0.000000
     18          6           0       -0.067899   -2.740039   -1.224029
     19          6           0       -2.202381   -2.740039    0.000000
     20          6           0       -1.523092   -2.740039   -1.224029
     21          1           0        1.697014   -2.740039    0.000000
     22          1           0       -3.288003   -2.740039    0.000000
     23          6           0        0.610896   -2.740039   -2.463318
     24          6           0       -0.068663   -2.740039   -3.671276
     25          6           0       -2.201886   -2.740039   -2.463317
     26          6           0       -1.522327   -2.740039   -3.671276
     27          1           0        1.696613   -2.740039   -2.463929
     28          1           0       -3.287602   -2.740039   -2.463929
     29          6           0        0.613238   -2.740039   -4.933593
     30          6           0       -0.079449   -2.740039   -6.106357
     31          6           0       -2.204229   -2.740039   -4.933593
     32          6           0       -1.511542   -2.740039   -6.106357
     33          1           0        1.698267   -2.740039   -4.933260
     34          1           0        0.449800   -2.740039   -7.052528
     35          1           0       -2.040791   -2.740039   -7.052528
     36          1           0       -3.289257   -2.740039   -4.933260
     37          6           0        0.795495    3.466871    3.671276
     38          6           0        0.795495    2.013207    3.671276
     39          6           0        0.795495    4.148772    4.933593
     40          6           0        0.795495    1.331305    4.933593
     41          6           0        0.795495    3.456085    6.106357
     42          6           0        0.795495    2.023992    6.106357
     43          6           0        0.795495    4.146430    2.463318
     44          6           0        0.795495    3.467635    1.224029
     45          6           0        0.795495    1.333648    2.463317
     46          6           0        0.795495    2.012442    1.224029
     47          1           0        0.795495    5.233801    4.933260
     48          1           0        0.795495    5.232147    2.463929
     49          1           0        0.795495    0.247932    2.463929
     50          1           0        0.795495    0.246277    4.933260
     51          1           0        0.795495    1.494743    7.052528
     52          1           0        0.795495    3.985334    7.052528
     53          6           0        0.795495    4.146925    0.000000
     54          6           0        0.795495    3.467635   -1.224029
     55          6           0        0.795495    1.333153    0.000000
     56          6           0        0.795495    2.012442   -1.224029
     57          1           0        0.795495    5.232548    0.000000
     58          1           0        0.795495    0.247531    0.000000
     59          6           0        0.795495    4.146430   -2.463318
     60          6           0        0.795495    3.466871   -3.671276
     61          6           0        0.795495    1.333648   -2.463317
     62          6           0        0.795495    2.013207   -3.671276
     63          1           0        0.795495    5.232147   -2.463929
     64          1           0        0.795495    0.247932   -2.463929
     65          6           0        0.795495    4.148772   -4.933593
     66          6           0        0.795495    3.456085   -6.106357
     67          6           0        0.795495    1.331305   -4.933593
     68          6           0        0.795495    2.023992   -6.106357
     69          1           0        0.795495    5.233801   -4.933260
     70          1           0        0.795495    3.985334   -7.052528
     71          1           0        0.795495    1.494743   -7.052528
     72          1           0        0.795495    0.246277   -4.933260
 ---------------------------------------------------------------------
 Rotational constants (GHZ):           0.0955006           0.0563744           0.0374558
 Leave Link  202 at Wed Sep 27 16:37:44 2023, MaxMem=  3221225472 cpu:               1.0 elap:               0.1
 (Enter /home/center/opt/aarch64/apps/gaussian16/c01/g16/l122.exe)
 Counterpoise: doing full-system calculation.
 Leave Link  122 at Wed Sep 27 16:37:46 2023, MaxMem=  3221225472 cpu:               0.1 elap:               0.0
 (Enter /home/center/opt/aarch64/apps/gaussian16/c01/g16/l301.exe)
 Standard basis: 6-311G(d,p) (5D, 7F)
 Ernie: Thresh=  0.10000D-02 Tol=  0.10000D-05 Strict=F.
 There are   528 symmetry adapted cartesian basis functions of A'  symmetry.
 There are   476 symmetry adapted cartesian basis functions of A"  symmetry.
 There are   504 symmetry adapted basis functions of A'  symmetry.
 There are   456 symmetry adapted basis functions of A"  symmetry.
   960 basis functions,  1632 primitive gaussians,  1004 cartesian basis functions
   146 alpha electrons      146 beta electrons
       nuclear repulsion energy      4549.1116080132 Hartrees.
 IExCor=  402 DFT=T Ex+Corr=B3LYP ExCW=0 ScaHFX=  0.200000
 ScaDFX=  0.800000  0.720000  1.000000  0.810000 ScalE2=  1.000000  1.000000
 IRadAn=      5 IRanWt=     -1 IRanGd=            0 ICorTp=0 IEmpDi=131
 NAtoms=   72 NActive=   72 NUniq=   40 SFac= 3.24D+00 NAtFMM=   60 NAOKFM=T Big=F
 Integral buffers will be    131072 words long.
 Raffenetti 2 integral format.
 Two-electron integral symmetry is turned on.
 R6Disp:  Grimme-D3 Dispersion energy=       -0.0748821295 Hartrees.
 Nuclear repulsion after empirical dispersion term =     4549.0367258837 Hartrees.
 Leave Link  301 at Wed Sep 27 16:37:48 2023, MaxMem=  3221225472 cpu:               1.9 elap:               0.1
 (Enter /home/center/opt/aarch64/apps/gaussian16/c01/g16/l302.exe)
 NPDir=0 NMtPBC=     1 NCelOv=     1 NCel=       1 NClECP=     1 NCelD=      1
         NCelK=      1 NCelE2=     1 NClLst=     1 CellRange=     0.0.
 One-electron integrals computed using PRISM.
 One-electron integral symmetry used in STVInt
 NBasis=   960 RedAO= T EigKep=  3.82D-05  NBF=   504   456
 NBsUse=   960 1.00D-06 EigRej= -1.00D+00 NBFU=   504   456
 Precomputing XC quadrature grid using
 IXCGrd= 4 IRadAn=           5 IRanWt=          -1 IRanGd=           0 AccXCQ= 0.00D+00.
 Generated NRdTot=       0 NPtTot=           0 NUsed=           0 NTot=          32
 NSgBfM=   989   989   989   989   989 MxSgAt=    72 MxSgA2=    72.
 Leave Link  302 at Wed Sep 27 16:37:53 2023, MaxMem=  3221225472 cpu:              48.9 elap:               1.9
 (Enter /home/center/opt/aarch64/apps/gaussian16/c01/g16/l303.exe)
 DipDrv:  MaxL=1.
 Leave Link  303 at Wed Sep 27 16:37:55 2023, MaxMem=  3221225472 cpu:              13.7 elap:               0.4
 (Enter /home/center/opt/aarch64/apps/gaussian16/c01/g16/l401.exe)
 ExpMin= 1.03D-01 ExpMax= 4.56D+03 ExpMxC= 6.82D+02 IAcc=3 IRadAn=         5 AccDes= 0.00D+00
 Harris functional with IExCor=  402 and IRadAn=       5 diagonalized for initial guess.
 HarFok:  IExCor=  402 AccDes= 0.00D+00 IRadAn=         5 IDoV= 1 UseB2=F ITyADJ=14
 ICtDFT=  3500011 ScaDFX=  1.000000  1.000000  1.000000  1.000000
 FoFCou: FMM=F IPFlag=           0 FMFlag=      100000 FMFlg1=        2000
         NFxFlg=           0 DoJE=T BraDBF=F KetDBF=T FulRan=T
         wScrn=  0.000000 ICntrl=       500 IOpCl=  0 I1Cent=   200000004 NGrid=           0
         NMat0=    1 NMatS0=      1 NMatT0=    0 NMatD0=    1 NMtDS0=    0 NMtDT0=    0
 Petite list used in FoFCou.
 Harris En= -1694.13737886372    
 JPrj=0 DoOrth=F DoCkMO=F.
 Initial guess orbital symmetries:
       Occupied  (A") (A') (A") (A') (A') (A") (A') (A") (A") (A')
                 (A") (A') (A") (A') (A") (A') (A") (A') (A') (A")
                 (A") (A') (A") (A') (A') (A') (A') (A') (A") (A')
                 (A") (A') (A") (A') (A") (A') (A") (A') (A") (A')
                 (A') (A") (A') (A") (A') (A') (A") (A") (A') (A')
                 (A") (A") (A') (A') (A') (A') (A") (A") (A') (A')
                 (A") (A") (A") (A") (A') (A') (A') (A') (A") (A")
                 (A") (A") (A') (A') (A") (A") (A') (A') (A') (A')
                 (A') (A') (A") (A") (A") (A") (A") (A') (A") (A')
                 (A') (A') (A") (A") (A') (A') (A') (A') (A") (A")
                 (A') (A') (A") (A") (A") (A") (A') (A') (A') (A')
                 (A") (A") (A') (A') (A") (A") (A') (A') (A") (A")
                 (A") (A") (A') (A') (A') (A') (A") (A") (A') (A')
                 (A") (A") (A') (A') (A") (A") (A') (A') (A') (A')
                 (A") (A") (A") (A") (A') (A')
       Virtual   (A') (A') (A") (A") (A") (A") (A') (A') (A') (A')
                 (A") (A") (A') (A') (A") (A") (A') (A") (A') (A')
                 (A') (A') (A") (A') (A') (A") (A") (A") (A') (A')
                 (A") (A') (A") (A") (A') (A") (A') (A") (A') (A")
                 (A') (A") (A') (A") (A') (A') (A") (A') (A') (A')
                 (A') (A") (A') (A") (A') (A') (A") (A') (A") (A')
                 (A") (A") (A") (A") (A') (A') (A") (A") (A') (A")
                 (A') (A") (A') (A') (A") (A') (A") (A") (A') (A")
                 (A') (A') (A') (A") (A') (A') (A') (A") (A") (A')
                 (A") (A") (A') (A") (A') (A') (A") (A') (A") (A")
                 (A") (A') (A') (A") (A") (A') (A') (A') (A") (A')
                 (A') (A') (A") (A') (A') (A') (A") (A") (A') (A")
                 (A") (A") (A') (A') (A") (A") (A') (A") (A') (A")
                 (A') (A") (A') (A") (A") (A') (A") (A') (A") (A')
                 (A") (A') (A') (A') (A') (A") (A') (A') (A') (A')
                 (A") (A") (A") (A') (A') (A") (A') (A") (A') (A")
                 (A') (A") (A") (A') (A") (A') (A") (A') (A') (A")
                 (A") (A') (A") (A') (A") (A') (A') (A") (A') (A")
                 (A') (A") (A") (A') (A') (A") (A') (A') (A') (A")
                 (A') (A") (A') (A") (A') (A") (A') (A') (A") (A")
                 (A") (A') (A') (A") (A') (A") (A') (A') (A') (A")
                 (A") (A') (A") (A') (A") (A') (A") (A") (A") (A')
                 (A") (A') (A") (A') (A") (A') (A") (A') (A') (A')
                 (A") (A') (A') (A") (A") (A') (A') (A") (A") (A')
                 (A") (A') (A") (A') (A') (A") (A') (A") (A') (A")
                 (A') (A") (A") (A") (A') (A') (A') (A") (A") (A')
                 (A') (A') (A") (A') (A") (A") (A") (A') (A") (A')
                 (A') (A") (A") (A") (A') (A") (A') (A') (A") (A")
                 (A") (A') (A') (A') (A') (A') (A") (A") (A') (A")
                 (A') (A') (A') (A") (A") (A") (A') (A") (A") (A")
                 (A") (A') (A') (A') (A") (A') (A') (A') (A") (A')
                 (A") (A") (A') (A") (A') (A") (A") (A') (A') (A')
                 (A") (A') (A") (A') (A') (A') (A") (A") (A") (A')
                 (A") (A") (A') (A") (A') (A') (A") (A') (A') (A")
                 (A") (A') (A') (A") (A") (A') (A") (A') (A') (A")
                 (A') (A') (A") (A") (A') (A') (A') (A") (A') (A")
                 (A') (A') (A') (A") (A') (A") (A") (A") (A") (A")
                 (A") (A') (A") (A") (A') (A') (A") (A') (A') (A')
                 (A") (A') (A') (A") (A') (A') (A") (A') (A') (A")
                 (A") (A') (A') (A') (A") (A') (A") (A") (A") (A")
                 (A') (A') (A") (A') (A") (A') (A') (A") (A") (A')
                 (A') (A") (A') (A') (A") (A') (A") (A') (A") (A')
                 (A') (A') (A') (A") (A') (A") (A') (A") (A') (A")
                 (A") (A") (A") (A') (A") (A") (A') (A") (A') (A')
                 (A") (A") (A') (A") (A') (A") (A') (A") (A') (A")
                 (A') (A') (A') (A") (A') (A") (A') (A') (A") (A")
                 (A') (A") (A") (A') (A') (A") (A") (A') (A") (A')
                 (A") (A") (A') (A') (A") (A') (A") (A") (A') (A')
                 (A") (A') (A') (A') (A") (A') (A") (A") (A") (A')
                 (A") (A') (A") (A") (A") (A") (A") (A") (A') (A')
                 (A') (A") (A') (A") (A') (A') (A') (A') (A") (A')
                 (A") (A') (A') (A') (A") (A") (A") (A") (A') (A')
                 (A") (A') (A") (A') (A") (A") (A') (A') (A") (A')
                 (A") (A') (A') (A') (A") (A") (A') (A") (A") (A')
                 (A") (A") (A') (A') (A') (A") (A") (A") (A') (A")
                 (A') (A") (A') (A") (A') (A") (A") (A') (A') (A')
                 (A") (A') (A") (A') (A') (A") (A') (A") (A') (A")
                 (A') (A") (A") (A') (A") (A') (A") (A') (A") (A')
                 (A') (A') (A') (A") (A') (A") (A") (A') (A') (A")
                 (A') (A') (A') (A') (A") (A") (A') (A') (A") (A")
                 (A') (A") (A") (A') (A') (A") (A") (A') (A") (A')
                 (A') (A") (A") (A') (A") (A') (A') (A") (A') (A")
                 (A") (A') (A") (A") (A') (A') (A") (A") (A') (A')
                 (A') (A') (A') (A") (A') (A') (A") (A') (A") (A")
                 (A") (A') (A") (A") (A') (A") (A") (A") (A') (A')
                 (A') (A') (A') (A') (A') (A") (A") (A') (A") (A')
                 (A') (A") (A") (A") (A') (A") (A') (A') (A') (A")
                 (A') (A") (A") (A') (A") (A') (A") (A") (A') (A')
                 (A") (A') (A") (A') (A') (A") (A') (A") (A") (A")
                 (A') (A') (A") (A') (A') (A') (A") (A") (A") (A')
                 (A') (A") (A') (A") (A") (A') (A') (A") (A') (A")
                 (A") (A') (A") (A") (A') (A') (A') (A') (A") (A")
                 (A') (A') (A") (A") (A') (A') (A") (A') (A') (A")
                 (A') (A") (A') (A") (A") (A') (A") (A') (A') (A")
                 (A') (A") (A') (A') (A") (A") (A') (A') (A') (A')
                 (A") (A') (A") (A') (A") (A") (A') (A') (A") (A")
                 (A") (A") (A') (A') (A") (A") (A') (A") (A') (A")
                 (A') (A') (A") (A") (A') (A') (A') (A') (A") (A")
                 (A") (A") (A') (A') (A") (A") (A') (A') (A') (A')
                 (A") (A") (A") (A") (A') (A') (A') (A') (A") (A")
                 (A') (A') (A") (A") (A') (A') (A") (A') (A") (A')
                 (A') (A") (A') (A")
 The electronic state of the initial guess is 1-A'.
 Leave Link  401 at Wed Sep 27 16:38:00 2023, MaxMem=  3221225472 cpu:             102.8 elap:               2.6
 (Enter /home/center/opt/aarch64/apps/gaussian16/c01/g16/l502.exe)
 Integral symmetry usage will be decided dynamically.
 Closed shell SCF:
 Using DIIS extrapolation, IDIIS=  1040.
 NGot=  3221225472 LenX=  3219153746 LenY=  3218144726
 Requested convergence on RMS density matrix=1.00D-08 within 128 cycles.
 Requested convergence on MAX density matrix=1.00D-06.
 Requested convergence on             energy=1.00D-06.
 No special actions if energy rises.
 Fock matrices will be formed incrementally for  20 cycles.
 Integral accuracy reduced to 1.0D-05 until final iterations.

 Cycle   1  Pass 0  IDiag  1:
 FoFJK:  IHMeth= 1 ICntrl=       0 DoSepK=F KAlg= 0 I1Cent=           0 FoldK=F
 IRaf= 540000000 NMat=       1 IRICut=       1 DoRegI=T DoRafI=F ISym2E= 1 IDoP0=0 IntGTp=1.
 FoFCou: FMM=F IPFlag=           0 FMFlag=      100000 FMFlg1=        2000
         NFxFlg=           0 DoJE=F BraDBF=F KetDBF=F FulRan=T
         wScrn=  0.000000 ICntrl=         0 IOpCl=  0 I1Cent=           0 NGrid=           0
         NMat0=    1 NMatS0=      1 NMatT0=    0 NMatD0=    1 NMtDS0=    0 NMtDT0=    0
 Petite list used in FoFCou.
 E= -1693.16291496727    
 DIIS: error= 4.68D-02 at cycle   1 NSaved=   1.
 NSaved= 1 IEnMin= 1 EnMin= -1693.16291496727     IErMin= 1 ErrMin= 4.68D-02
 ErrMax= 4.68D-02  0.00D+00 EMaxC= 1.00D-01 BMatC= 9.03D-01 BMatP= 9.03D-01
 IDIUse=3 WtCom= 5.32D-01 WtEn= 4.68D-01
 Coeff-Com:  0.100D+01
 Coeff-En:   0.100D+01
 Coeff:      0.100D+01
 Gap=     0.065 Goal=   None    Shift=    0.000
 GapD=    0.065 DampG=0.500 DampE=0.500 DampFc=0.2500 IDamp=-1.
 Damping current iteration by 2.50D-01
 RMSDP=1.73D-03 MaxDP=8.41D-02              OVMax= 1.58D-01

 Cycle   2  Pass 0  IDiag  1:
 RMSU=  4.17D-04    CP:  9.82D-01
 E= -1693.47413200692     Delta-E=       -0.311217039647 Rises=F Damp=T
 DIIS: error= 2.72D-02 at cycle   2 NSaved=   2.
 NSaved= 2 IEnMin= 2 EnMin= -1693.47413200692     IErMin= 2 ErrMin= 2.72D-02
 ErrMax= 2.72D-02  0.00D+00 EMaxC= 1.00D-01 BMatC= 2.99D-01 BMatP= 9.03D-01
 IDIUse=3 WtCom= 7.28D-01 WtEn= 2.72D-01
 Coeff-Com: -0.120D+01 0.220D+01
 Coeff-En:   0.000D+00 0.100D+01
 Coeff:     -0.876D+00 0.188D+01
 Gap=     0.067 Goal=   None    Shift=    0.000
 RMSDP=7.10D-04 MaxDP=3.33D-02 DE=-3.11D-01 OVMax= 7.94D-02

 Cycle   3  Pass 0  IDiag  1:
 RMSU=  4.50D-04    CP:  9.56D-01  2.26D+00
 E= -1694.04294496025     Delta-E=       -0.568812953337 Rises=F Damp=F
 DIIS: error= 4.97D-03 at cycle   3 NSaved=   3.
 NSaved= 3 IEnMin= 3 EnMin= -1694.04294496025     IErMin= 3 ErrMin= 4.97D-03
 ErrMax= 4.97D-03  0.00D+00 EMaxC= 1.00D-01 BMatC= 1.18D-02 BMatP= 2.99D-01
 IDIUse=3 WtCom= 9.50D-01 WtEn= 4.97D-02
 Coeff-Com: -0.235D+00 0.495D+00 0.740D+00
 Coeff-En:   0.000D+00 0.000D+00 0.100D+01
 Coeff:     -0.223D+00 0.471D+00 0.752D+00
 Gap=     0.070 Goal=   None    Shift=    0.000
 RMSDP=2.33D-04 MaxDP=1.21D-02 DE=-5.69D-01 OVMax= 7.98D-02

 Cycle   4  Pass 0  IDiag  1:
 RMSU=  2.01D-04    CP:  9.57D-01  2.16D+00  7.59D-01
 E= -1694.03915791175     Delta-E=        0.003787048504 Rises=F Damp=F
 DIIS: error= 7.40D-03 at cycle   4 NSaved=   4.
 NSaved= 4 IEnMin= 3 EnMin= -1694.04294496025     IErMin= 3 ErrMin= 4.97D-03
 ErrMax= 7.40D-03  0.00D+00 EMaxC= 1.00D-01 BMatC= 1.34D-02 BMatP= 1.18D-02
 IDIUse=3 WtCom= 1.04D-01 WtEn= 8.96D-01
 Coeff-Com: -0.300D-01 0.968D-01 0.525D+00 0.408D+00
 Coeff-En:   0.000D+00 0.000D+00 0.557D+00 0.443D+00
 Coeff:     -0.312D-02 0.101D-01 0.553D+00 0.440D+00
 Gap=     0.068 Goal=   None    Shift=    0.000
 RMSDP=1.45D-04 MaxDP=8.34D-03 DE= 3.79D-03 OVMax= 7.00D-02

 Cycle   5  Pass 0  IDiag  1:
 RMSU=  8.36D-05    CP:  9.57D-01  2.15D+00  8.37D-01  4.36D-01
 E= -1694.05388612733     Delta-E=       -0.014728215583 Rises=F Damp=F
 DIIS: error= 2.66D-03 at cycle   5 NSaved=   5.
 NSaved= 5 IEnMin= 5 EnMin= -1694.05388612733     IErMin= 5 ErrMin= 2.66D-03
 ErrMax= 2.66D-03  0.00D+00 EMaxC= 1.00D-01 BMatC= 1.18D-03 BMatP= 1.18D-02
 IDIUse=3 WtCom= 9.73D-01 WtEn= 2.66D-02
 Coeff-Com: -0.170D-01 0.358D-01 0.242D+00 0.254D+00 0.485D+00
 Coeff-En:   0.000D+00 0.000D+00 0.000D+00 0.567D-01 0.943D+00
 Coeff:     -0.165D-01 0.349D-01 0.235D+00 0.249D+00 0.497D+00
 Gap=     0.068 Goal=   None    Shift=    0.000
 RMSDP=4.98D-05 MaxDP=3.22D-03 DE=-1.47D-02 OVMax= 2.96D-02

 Cycle   6  Pass 0  IDiag  1:
 RMSU=  2.33D-05    CP:  9.57D-01  2.17D+00  8.38D-01  5.29D-01  5.40D-01
 E= -1694.05501854261     Delta-E=       -0.001132415273 Rises=F Damp=F
 DIIS: error= 1.44D-03 at cycle   6 NSaved=   6.
 NSaved= 6 IEnMin= 6 EnMin= -1694.05501854261     IErMin= 6 ErrMin= 1.44D-03
 ErrMax= 1.44D-03  0.00D+00 EMaxC= 1.00D-01 BMatC= 2.37D-04 BMatP= 1.18D-03
 IDIUse=3 WtCom= 9.86D-01 WtEn= 1.44D-02
 Coeff-Com: -0.692D-02 0.101D-01 0.964D-01 0.121D+00 0.356D+00 0.424D+00
 Coeff-En:   0.000D+00 0.000D+00 0.000D+00 0.000D+00 0.169D+00 0.831D+00
 Coeff:     -0.682D-02 0.997D-02 0.950D-01 0.119D+00 0.353D+00 0.430D+00
 Gap=     0.068 Goal=   None    Shift=    0.000
 RMSDP=1.91D-05 MaxDP=1.54D-03 DE=-1.13D-03 OVMax= 1.33D-02

 Cycle   7  Pass 0  IDiag  1:
 RMSU=  8.55D-06    CP:  9.57D-01  2.17D+00  8.40D-01  5.08D-01  6.06D-01
                    CP:  3.33D-01
 E= -1694.05528035720     Delta-E=       -0.000261814598 Rises=F Damp=F
 DIIS: error= 3.64D-04 at cycle   7 NSaved=   7.
 NSaved= 7 IEnMin= 7 EnMin= -1694.05528035720     IErMin= 7 ErrMin= 3.64D-04
 ErrMax= 3.64D-04  0.00D+00 EMaxC= 1.00D-01 BMatC= 1.94D-05 BMatP= 2.37D-04
 IDIUse=3 WtCom= 9.96D-01 WtEn= 3.64D-03
 Coeff-Com: -0.299D-02 0.367D-02 0.517D-01 0.663D-01 0.212D+00 0.296D+00
 Coeff-Com:  0.374D+00
 Coeff-En:   0.000D+00 0.000D+00 0.000D+00 0.000D+00 0.000D+00 0.296D-01
 Coeff-En:   0.970D+00
 Coeff:     -0.298D-02 0.366D-02 0.515D-01 0.661D-01 0.211D+00 0.295D+00
 Coeff:      0.376D+00
 Gap=     0.068 Goal=   None    Shift=    0.000
 RMSDP=5.48D-06 MaxDP=3.60D-04 DE=-2.62D-04 OVMax= 3.10D-03

 Initial convergence to 1.0D-05 achieved.  Increase integral accuracy.
 Cycle   8  Pass 1  IDiag  1:
 E= -1694.05492158455     Delta-E=        0.000358772652 Rises=F Damp=F
 DIIS: error= 1.03D-03 at cycle   1 NSaved=   1.
 NSaved= 1 IEnMin= 1 EnMin= -1694.05492158455     IErMin= 1 ErrMin= 1.03D-03
 ErrMax= 1.03D-03  0.00D+00 EMaxC= 1.00D-01 BMatC= 5.53D-05 BMatP= 5.53D-05
 IDIUse=3 WtCom= 9.90D-01 WtEn= 1.03D-02
 Coeff-Com:  0.100D+01
 Coeff-En:   0.100D+01
 Coeff:      0.100D+01
 Gap=     0.068 Goal=   None    Shift=    0.000
 RMSDP=5.48D-06 MaxDP=3.60D-04 DE= 3.59D-04 OVMax= 2.47D-03

 Cycle   9  Pass 1  IDiag  1:
 RMSU=  3.71D-04    CP:  9.98D-01
 E= -1694.05497645159     Delta-E=       -0.000054867034 Rises=F Damp=F
 DIIS: error= 1.80D-04 at cycle   2 NSaved=   2.
 NSaved= 2 IEnMin= 2 EnMin= -1694.05497645159     IErMin= 2 ErrMin= 1.80D-04
 ErrMax= 1.80D-04  0.00D+00 EMaxC= 1.00D-01 BMatC= 3.34D-06 BMatP= 5.53D-05
 IDIUse=3 WtCom= 9.98D-01 WtEn= 1.80D-03
 Coeff-Com:  0.703D-01 0.930D+00
 Coeff-En:   0.000D+00 0.100D+01
 Coeff:      0.702D-01 0.930D+00
 Gap=     0.068 Goal=   None    Shift=    0.000
 RMSDP=7.77D-06 MaxDP=5.19D-04 DE=-5.49D-05 OVMax= 4.56D-03

 Cycle  10  Pass 1  IDiag  1:
 RMSU=  6.82D-06    CP:  9.98D-01  1.01D+00
 E= -1694.05495722650     Delta-E=        0.000019225088 Rises=F Damp=F
 DIIS: error= 4.76D-04 at cycle   3 NSaved=   3.
 NSaved= 3 IEnMin= 2 EnMin= -1694.05497645159     IErMin= 2 ErrMin= 1.80D-04
 ErrMax= 4.76D-04  0.00D+00 EMaxC= 1.00D-01 BMatC= 1.86D-05 BMatP= 3.34D-06
 IDIUse=3 WtCom= 3.14D-01 WtEn= 6.86D-01
 Coeff-Com: -0.321D-02 0.706D+00 0.297D+00
 Coeff-En:   0.000D+00 0.786D+00 0.214D+00
 Coeff:     -0.101D-02 0.761D+00 0.240D+00
 Gap=     0.068 Goal=   None    Shift=    0.000
 RMSDP=3.99D-06 MaxDP=3.03D-04 DE= 1.92D-05 OVMax= 2.85D-03

 Cycle  11  Pass 1  IDiag  1:
 RMSU=  1.01D-06    CP:  9.98D-01  1.01D+00  4.37D-01
 E= -1694.05497958920     Delta-E=       -0.000022362704 Rises=F Damp=F
 DIIS: error= 6.58D-05 at cycle   4 NSaved=   4.
 NSaved= 4 IEnMin= 4 EnMin= -1694.05497958920     IErMin= 4 ErrMin= 6.58D-05
 ErrMax= 6.58D-05  0.00D+00 EMaxC= 1.00D-01 BMatC= 7.72D-07 BMatP= 3.34D-06
 IDIUse=1 WtCom= 1.00D+00 WtEn= 0.00D+00
 Coeff-Com: -0.414D-02 0.459D+00 0.114D+00 0.430D+00
 Coeff:     -0.414D-02 0.459D+00 0.114D+00 0.430D+00
 Gap=     0.068 Goal=   None    Shift=    0.000
 RMSDP=9.24D-07 MaxDP=5.88D-05 DE=-2.24D-05 OVMax= 4.57D-04

 Cycle  12  Pass 1  IDiag  1:
 RMSU=  4.40D-07    CP:  9.98D-01  1.01D+00  3.20D-01  8.84D-01
 E= -1694.05498045618     Delta-E=       -0.000000866982 Rises=F Damp=F
 DIIS: error= 6.18D-06 at cycle   5 NSaved=   5.
 NSaved= 5 IEnMin= 5 EnMin= -1694.05498045618     IErMin= 5 ErrMin= 6.18D-06
 ErrMax= 6.18D-06  0.00D+00 EMaxC= 1.00D-01 BMatC= 6.34D-09 BMatP= 7.72D-07
 IDIUse=1 WtCom= 1.00D+00 WtEn= 0.00D+00
 Coeff-Com: -0.257D-02 0.279D+00 0.663D-01 0.279D+00 0.379D+00
 Coeff:     -0.257D-02 0.279D+00 0.663D-01 0.279D+00 0.379D+00
 Gap=     0.068 Goal=   None    Shift=    0.000
 RMSDP=1.15D-07 MaxDP=7.07D-06 DE=-8.67D-07 OVMax= 5.47D-05

 Cycle  13  Pass 1  IDiag  1:
 RMSU=  1.01D-07    CP:  9.98D-01  1.01D+00  3.20D-01  9.01D-01  8.82D-01
 E= -1694.05498046406     Delta-E=       -0.000000007873 Rises=F Damp=F
 DIIS: error= 1.94D-06 at cycle   6 NSaved=   6.
 NSaved= 6 IEnMin= 6 EnMin= -1694.05498046406     IErMin= 6 ErrMin= 1.94D-06
 ErrMax= 1.94D-06  0.00D+00 EMaxC= 1.00D-01 BMatC= 6.19D-10 BMatP= 6.34D-09
 IDIUse=1 WtCom= 1.00D+00 WtEn= 0.00D+00
 Coeff-Com: -0.917D-03 0.963D-01 0.221D-01 0.102D+00 0.244D+00 0.536D+00
 Coeff:     -0.917D-03 0.963D-01 0.221D-01 0.102D+00 0.244D+00 0.536D+00
 Gap=     0.068 Goal=   None    Shift=    0.000
 RMSDP=2.96D-08 MaxDP=2.25D-06 DE=-7.87D-09 OVMax= 1.90D-05

 Cycle  14  Pass 1  IDiag  1:
 RMSU=  2.46D-08    CP:  9.98D-01  1.01D+00  3.21D-01  9.02D-01  8.99D-01
                    CP:  8.68D-01
 E= -1694.05498046461     Delta-E=       -0.000000000557 Rises=F Damp=F
 DIIS: error= 8.58D-07 at cycle   7 NSaved=   7.
 NSaved= 7 IEnMin= 7 EnMin= -1694.05498046461     IErMin= 7 ErrMin= 8.58D-07
 ErrMax= 8.58D-07  0.00D+00 EMaxC= 1.00D-01 BMatC= 7.92D-11 BMatP= 6.19D-10
 IDIUse=1 WtCom= 1.00D+00 WtEn= 0.00D+00
 Coeff-Com: -0.378D-03 0.392D-01 0.885D-02 0.427D-01 0.128D+00 0.330D+00
 Coeff-Com:  0.451D+00
 Coeff:     -0.378D-03 0.392D-01 0.885D-02 0.427D-01 0.128D+00 0.330D+00
 Coeff:      0.451D+00
 Gap=     0.068 Goal=   None    Shift=    0.000
 RMSDP=1.49D-08 MaxDP=9.87D-07 DE=-5.57D-10 OVMax= 9.90D-06

 Cycle  15  Pass 1  IDiag  1:
 RMSU=  9.67D-09    CP:  9.98D-01  1.01D+00  3.21D-01  9.03D-01  9.01D-01
                    CP:  8.94D-01  5.67D-01
 E= -1694.05498046469     Delta-E=       -0.000000000072 Rises=F Damp=F
 DIIS: error= 4.82D-07 at cycle   8 NSaved=   8.
 NSaved= 8 IEnMin= 8 EnMin= -1694.05498046469     IErMin= 8 ErrMin= 4.82D-07
 ErrMax= 4.82D-07  0.00D+00 EMaxC= 1.00D-01 BMatC= 2.41D-11 BMatP= 7.92D-11
 IDIUse=1 WtCom= 1.00D+00 WtEn= 0.00D+00
 Coeff-Com:  0.423D-05-0.966D-03-0.373D-03 0.200D-04 0.256D-01 0.809D-01
 Coeff-Com:  0.358D+00 0.537D+00
 Coeff:      0.423D-05-0.966D-03-0.373D-03 0.200D-04 0.256D-01 0.809D-01
 Coeff:      0.358D+00 0.537D+00
 Gap=     0.068 Goal=   None    Shift=    0.000
 RMSDP=6.02D-09 MaxDP=3.75D-07 DE=-7.19D-11 OVMax= 3.31D-06

 SCF Done:  E(RB3LYP) =  -1694.05498046     A.U. after   15 cycles
            NFock= 15  Conv=0.60D-08     -V/T= 2.0044
 KE= 1.686681978188D+03 PE=-1.302850587118D+04 EE= 5.098732186644D+03
 Leave Link  502 at Wed Sep 27 16:39:43 2023, MaxMem=  3221225472 cpu:            3602.4 elap:             100.5
 (Enter /home/center/opt/aarch64/apps/gaussian16/c01/g16/l601.exe)
 Copying SCF densities to generalized density rwf, IOpCl= 0 IROHF=0.

 **********************************************************************

            Population analysis using the SCF Density.

 **********************************************************************

 Orbital symmetries:
       Occupied  (A") (A') (A') (A") (A") (A') (A") (A') (A') (A')
                 (A") (A') (A") (A') (A") (A') (A") (A') (A") (A')
                 (A") (A') (A") (A') (A") (A') (A') (A") (A") (A')
                 (A") (A') (A') (A") (A') (A') (A") (A") (A') (A')
                 (A") (A') (A") (A') (A') (A') (A") (A") (A') (A')
                 (A") (A") (A') (A') (A') (A") (A') (A") (A') (A')
                 (A") (A") (A") (A") (A') (A') (A') (A') (A") (A")
                 (A") (A") (A') (A") (A') (A') (A") (A') (A') (A')
                 (A') (A") (A") (A') (A") (A") (A') (A") (A') (A")
                 (A') (A') (A') (A") (A") (A') (A") (A") (A') (A')
                 (A') (A") (A') (A') (A') (A') (A") (A") (A') (A")
                 (A') (A') (A") (A") (A") (A") (A") (A") (A') (A')
                 (A') (A') (A') (A') (A") (A") (A') (A") (A") (A")
                 (A') (A") (A') (A') (A") (A') (A") (A') (A') (A')
                 (A") (A") (A") (A") (A') (A')
       Virtual   (A') (A') (A") (A") (A") (A") (A') (A') (A') (A")
                 (A') (A') (A") (A') (A") (A') (A') (A') (A") (A")
                 (A') (A') (A") (A") (A') (A") (A') (A") (A') (A")
                 (A") (A') (A") (A') (A') (A") (A") (A') (A") (A')
                 (A') (A') (A") (A') (A") (A') (A") (A") (A') (A')
                 (A") (A') (A') (A') (A') (A') (A') (A") (A") (A')
                 (A") (A") (A") (A") (A') (A') (A") (A") (A') (A")
                 (A') (A') (A") (A') (A") (A') (A") (A') (A") (A")
                 (A') (A') (A') (A') (A') (A") (A') (A") (A') (A")
                 (A") (A') (A') (A') (A") (A") (A') (A") (A") (A")
                 (A') (A") (A') (A') (A') (A") (A') (A") (A') (A")
                 (A") (A') (A") (A') (A') (A") (A") (A") (A') (A')
                 (A') (A") (A') (A') (A') (A') (A') (A") (A") (A')
                 (A") (A') (A') (A") (A") (A') (A') (A') (A") (A')
                 (A") (A') (A') (A") (A") (A') (A") (A") (A') (A")
                 (A") (A") (A') (A') (A") (A') (A") (A') (A') (A")
                 (A') (A') (A") (A") (A') (A') (A") (A") (A') (A")
                 (A") (A') (A") (A') (A') (A') (A') (A") (A') (A")
                 (A') (A") (A") (A') (A') (A") (A') (A") (A") (A')
                 (A") (A') (A") (A") (A') (A") (A') (A') (A') (A")
                 (A') (A") (A') (A") (A') (A") (A') (A') (A") (A')
                 (A') (A") (A') (A") (A") (A') (A") (A') (A") (A')
                 (A") (A") (A') (A") (A") (A') (A') (A') (A") (A')
                 (A') (A") (A") (A') (A") (A') (A") (A') (A') (A")
                 (A") (A') (A') (A") (A') (A") (A') (A") (A") (A')
                 (A') (A") (A') (A") (A") (A') (A") (A') (A") (A")
                 (A') (A') (A') (A") (A') (A') (A") (A') (A') (A")
                 (A") (A") (A') (A") (A') (A") (A") (A') (A") (A')
                 (A") (A') (A') (A") (A') (A") (A') (A") (A') (A")
                 (A") (A') (A') (A") (A") (A') (A') (A') (A") (A')
                 (A") (A") (A") (A") (A') (A") (A') (A') (A') (A')
                 (A') (A") (A') (A') (A") (A") (A") (A') (A") (A")
                 (A') (A") (A') (A') (A') (A") (A') (A") (A") (A')
                 (A") (A") (A') (A") (A') (A") (A') (A") (A') (A')
                 (A") (A') (A') (A') (A") (A") (A') (A') (A") (A')
                 (A") (A') (A") (A") (A') (A') (A') (A') (A') (A')
                 (A") (A") (A') (A") (A') (A") (A") (A") (A") (A")
                 (A') (A") (A") (A') (A") (A') (A') (A") (A') (A")
                 (A') (A') (A') (A") (A") (A') (A') (A") (A') (A')
                 (A') (A') (A") (A") (A') (A") (A') (A") (A") (A')
                 (A') (A") (A") (A') (A") (A') (A') (A') (A") (A")
                 (A') (A') (A") (A') (A') (A") (A") (A") (A') (A')
                 (A') (A") (A') (A') (A") (A') (A') (A") (A") (A')
                 (A") (A") (A") (A') (A") (A') (A") (A') (A') (A")
                 (A') (A") (A") (A') (A") (A") (A') (A') (A") (A")
                 (A') (A') (A") (A') (A") (A') (A') (A") (A") (A')
                 (A") (A") (A') (A') (A") (A') (A") (A') (A') (A')
                 (A") (A") (A') (A') (A") (A") (A") (A") (A') (A')
                 (A') (A") (A") (A') (A') (A') (A") (A') (A") (A")
                 (A") (A") (A') (A") (A") (A") (A") (A") (A') (A')
                 (A") (A') (A') (A') (A") (A') (A') (A') (A") (A")
                 (A') (A') (A') (A") (A') (A") (A') (A") (A') (A")
                 (A") (A") (A') (A") (A') (A') (A") (A') (A") (A')
                 (A") (A') (A") (A') (A") (A") (A") (A') (A') (A')
                 (A") (A") (A') (A') (A") (A') (A") (A") (A') (A")
                 (A') (A") (A") (A') (A") (A') (A') (A") (A') (A')
                 (A") (A') (A') (A") (A") (A') (A") (A') (A") (A")
                 (A') (A') (A') (A') (A") (A') (A') (A') (A") (A")
                 (A') (A") (A") (A') (A") (A') (A') (A") (A") (A')
                 (A") (A') (A") (A") (A') (A") (A') (A') (A") (A')
                 (A') (A") (A') (A") (A') (A") (A') (A") (A') (A')
                 (A') (A") (A') (A") (A') (A') (A') (A") (A') (A")
                 (A") (A") (A') (A') (A") (A") (A') (A") (A") (A")
                 (A') (A') (A') (A') (A") (A') (A') (A') (A") (A")
                 (A') (A") (A") (A") (A') (A") (A") (A') (A') (A')
                 (A") (A') (A') (A") (A') (A') (A") (A') (A') (A")
                 (A") (A") (A') (A') (A") (A") (A') (A') (A') (A")
                 (A') (A") (A") (A') (A") (A') (A") (A") (A') (A')
                 (A') (A') (A") (A") (A') (A") (A') (A") (A") (A")
                 (A') (A') (A") (A') (A') (A') (A") (A") (A') (A")
                 (A') (A') (A") (A") (A') (A") (A') (A") (A") (A')
                 (A') (A") (A") (A") (A') (A') (A') (A') (A") (A")
                 (A') (A') (A") (A') (A") (A') (A') (A") (A') (A")
                 (A") (A') (A') (A") (A") (A') (A') (A") (A') (A")
                 (A') (A") (A') (A") (A') (A') (A") (A') (A') (A")
                 (A') (A') (A") (A') (A") (A") (A') (A') (A") (A")
                 (A") (A') (A") (A") (A') (A") (A') (A") (A') (A")
                 (A') (A') (A") (A") (A') (A') (A') (A') (A") (A")
                 (A") (A") (A') (A') (A") (A') (A") (A') (A') (A')
                 (A") (A") (A") (A") (A') (A') (A') (A") (A') (A")
                 (A') (A') (A") (A') (A") (A") (A') (A') (A") (A')
                 (A') (A") (A') (A")
 The electronic state is 1-A'.
 Alpha  occ. eigenvalues --  -10.19526 -10.19526 -10.19448 -10.19448 -10.19438
 Alpha  occ. eigenvalues --  -10.19438 -10.19337 -10.19337 -10.18542 -10.18497
 Alpha  occ. eigenvalues --  -10.18480 -10.18480 -10.18464 -10.18464 -10.18432
 Alpha  occ. eigenvalues --  -10.18432 -10.18360 -10.18360 -10.18338 -10.18338
 Alpha  occ. eigenvalues --  -10.18246 -10.18246 -10.18190 -10.18190 -10.18139
 Alpha  occ. eigenvalues --  -10.18139 -10.18111 -10.18111 -10.18039 -10.18039
 Alpha  occ. eigenvalues --  -10.17249 -10.17249 -10.17202 -10.17192 -10.17192
 Alpha  occ. eigenvalues --  -10.17179 -10.17179 -10.17115 -10.17115 -10.17109
 Alpha  occ. eigenvalues --  -10.17075 -10.17075 -10.17010 -10.17010  -0.89910
 Alpha  occ. eigenvalues --   -0.88594  -0.88419  -0.87141  -0.86096  -0.84835
 Alpha  occ. eigenvalues --   -0.82958  -0.81706  -0.80381  -0.79062  -0.79056
 Alpha  occ. eigenvalues --   -0.78859  -0.77815  -0.77572  -0.76529  -0.75259
 Alpha  occ. eigenvalues --   -0.74798  -0.73543  -0.73436  -0.72173  -0.69737
 Alpha  occ. eigenvalues --   -0.68461  -0.67882  -0.66628  -0.63268  -0.62895
 Alpha  occ. eigenvalues --   -0.62004  -0.61665  -0.61645  -0.60490  -0.60326
 Alpha  occ. eigenvalues --   -0.59823  -0.59198  -0.58559  -0.58214  -0.56977
 Alpha  occ. eigenvalues --   -0.53235  -0.53092  -0.52812  -0.51996  -0.51831
 Alpha  occ. eigenvalues --   -0.51586  -0.50165  -0.49034  -0.48909  -0.47823
 Alpha  occ. eigenvalues --   -0.47668  -0.46628  -0.46443  -0.46091  -0.46009
 Alpha  occ. eigenvalues --   -0.45374  -0.44850  -0.44758  -0.44451  -0.43685
 Alpha  occ. eigenvalues --   -0.43232  -0.43077  -0.42469  -0.42329  -0.42087
 Alpha  occ. eigenvalues --   -0.41915  -0.41831  -0.41239  -0.41041  -0.40921
 Alpha  occ. eigenvalues --   -0.40819  -0.40658  -0.40145  -0.39952  -0.39701
 Alpha  occ. eigenvalues --   -0.38874  -0.38704  -0.37472  -0.37305  -0.36848
 Alpha  occ. eigenvalues --   -0.36060  -0.36036  -0.35666  -0.34767  -0.34630
 Alpha  occ. eigenvalues --   -0.34313  -0.33578  -0.33451  -0.33372  -0.33084
 Alpha  occ. eigenvalues --   -0.32702  -0.32243  -0.31707  -0.30872  -0.30148
 Alpha  occ. eigenvalues --   -0.28947  -0.28946  -0.27727  -0.27158  -0.25913
 Alpha  occ. eigenvalues --   -0.24928  -0.23671  -0.23136  -0.21872  -0.18432
 Alpha  occ. eigenvalues --   -0.17126
 Alpha virt. eigenvalues --   -0.10338  -0.09031  -0.05038  -0.03760  -0.03334
 Alpha virt. eigenvalues --   -0.02054  -0.00753   0.00557   0.01500   0.01651
 Alpha virt. eigenvalues --    0.02283   0.02749   0.03071   0.03728   0.03936
 Alpha virt. eigenvalues --    0.03989   0.04492   0.05328   0.05582   0.05876
 Alpha virt. eigenvalues --    0.05980   0.06493   0.07211   0.07679   0.07717
 Alpha virt. eigenvalues --    0.07886   0.08803   0.08984   0.09085   0.09505
 Alpha virt. eigenvalues --    0.10010   0.10176   0.10930   0.11006   0.11141
 Alpha virt. eigenvalues --    0.11857   0.12621   0.12949   0.13328   0.13928
 Alpha virt. eigenvalues --    0.14195   0.14834   0.15486   0.15713   0.17680
 Alpha virt. eigenvalues --    0.17777   0.18312   0.18848   0.18951   0.19481
 Alpha virt. eigenvalues --    0.19560   0.20280   0.22344   0.22515   0.23627
 Alpha virt. eigenvalues --    0.23781   0.23980   0.24186   0.25112   0.25183
 Alpha virt. eigenvalues --    0.25672   0.26192   0.27022   0.27156   0.27598
 Alpha virt. eigenvalues --    0.27754   0.28115   0.28223   0.28754   0.28777
 Alpha virt. eigenvalues --    0.28907   0.29260   0.29698   0.30055   0.30120
 Alpha virt. eigenvalues --    0.30326   0.30699   0.31314   0.31389   0.31967
 Alpha virt. eigenvalues --    0.32512   0.34196   0.34359   0.35033   0.35837
 Alpha virt. eigenvalues --    0.35941   0.36023   0.36303   0.36927   0.36979
 Alpha virt. eigenvalues --    0.37115   0.37403   0.37644   0.37897   0.38021
 Alpha virt. eigenvalues --    0.38278   0.38463   0.38481   0.38764   0.39210
 Alpha virt. eigenvalues --    0.39253   0.39497   0.39664   0.39911   0.40089
 Alpha virt. eigenvalues --    0.40543   0.40615   0.40778   0.41122   0.41427
 Alpha virt. eigenvalues --    0.41773   0.42198   0.42300   0.42320   0.42355
 Alpha virt. eigenvalues --    0.42554   0.42614   0.42886   0.43154   0.43342
 Alpha virt. eigenvalues --    0.43594   0.44026   0.44335   0.44719   0.45028
 Alpha virt. eigenvalues --    0.45267   0.45638   0.45722   0.45886   0.45927
 Alpha virt. eigenvalues --    0.45936   0.46219   0.46401   0.46402   0.46513
 Alpha virt. eigenvalues --    0.46636   0.46918   0.47119   0.47223   0.47538
 Alpha virt. eigenvalues --    0.47650   0.47765   0.48615   0.48617   0.48986
 Alpha virt. eigenvalues --    0.49066   0.49297   0.49488   0.50009   0.50173
 Alpha virt. eigenvalues --    0.50404   0.50776   0.50907   0.51414   0.51768
 Alpha virt. eigenvalues --    0.51923   0.52484   0.52493   0.52635   0.53618
 Alpha virt. eigenvalues --    0.54398   0.54468   0.54620   0.54964   0.55200
 Alpha virt. eigenvalues --    0.56255   0.56705   0.57034   0.57321   0.57333
 Alpha virt. eigenvalues --    0.58396   0.58615   0.59259   0.59663   0.59889
 Alpha virt. eigenvalues --    0.60019   0.60548   0.61401   0.61421   0.61481
 Alpha virt. eigenvalues --    0.61701   0.61950   0.62155   0.62189   0.62496
 Alpha virt. eigenvalues --    0.62644   0.63085   0.63126   0.63440   0.63455
 Alpha virt. eigenvalues --    0.63934   0.64135   0.64451   0.64907   0.65443
 Alpha virt. eigenvalues --    0.65792   0.65841   0.66024   0.66475   0.66567
 Alpha virt. eigenvalues --    0.67269   0.67629   0.68871   0.69573   0.70175
 Alpha virt. eigenvalues --    0.70591   0.70687   0.71690   0.71816   0.72137
 Alpha virt. eigenvalues --    0.72696   0.72707   0.73282   0.73435   0.73745
 Alpha virt. eigenvalues --    0.74547   0.74823   0.74843   0.75369   0.76262
 Alpha virt. eigenvalues --    0.76388   0.76973   0.77118   0.77397   0.78160
 Alpha virt. eigenvalues --    0.78691   0.78947   0.79228   0.79455   0.80225
 Alpha virt. eigenvalues --    0.80542   0.80778   0.81170   0.81361   0.82288
 Alpha virt. eigenvalues --    0.82320   0.82699   0.83049   0.83221   0.83547
 Alpha virt. eigenvalues --    0.84003   0.84206   0.84888   0.85243   0.85987
 Alpha virt. eigenvalues --    0.86174   0.87051   0.88008   0.88546   0.88959
 Alpha virt. eigenvalues --    0.90158   0.90170   0.90742   0.91066   0.91414
 Alpha virt. eigenvalues --    0.91801   0.92205   0.92897   0.93313   0.94110
 Alpha virt. eigenvalues --    0.94402   0.94581   0.95335   0.95476   0.95657
 Alpha virt. eigenvalues --    0.96026   0.96142   0.96560   0.97549   0.97569
 Alpha virt. eigenvalues --    0.97920   0.98533   0.98660   0.99269   1.00264
 Alpha virt. eigenvalues --    1.00667   1.01209   1.01626   1.01812   1.02343
 Alpha virt. eigenvalues --    1.02637   1.03017   1.03455   1.04026   1.04200
 Alpha virt. eigenvalues --    1.04593   1.04728   1.05024   1.05281   1.05432
 Alpha virt. eigenvalues --    1.06017   1.06055   1.06129   1.06258   1.06751
 Alpha virt. eigenvalues --    1.06852   1.07016   1.07614   1.08032   1.08214
 Alpha virt. eigenvalues --    1.08388   1.09163   1.09506   1.09872   1.10535
 Alpha virt. eigenvalues --    1.10771   1.10980   1.11548   1.12146   1.12813
 Alpha virt. eigenvalues --    1.12994   1.13100   1.13766   1.13940   1.13998
 Alpha virt. eigenvalues --    1.14847   1.15235   1.15908   1.16112   1.16558
 Alpha virt. eigenvalues --    1.17079   1.18087   1.18236   1.19217   1.20028
 Alpha virt. eigenvalues --    1.21050   1.21751   1.22855   1.23323   1.24056
 Alpha virt. eigenvalues --    1.24215   1.25695   1.27810   1.28195   1.30243
 Alpha virt. eigenvalues --    1.30666   1.30944   1.32680   1.32757   1.33136
 Alpha virt. eigenvalues --    1.33932   1.35004   1.35197   1.36507   1.37456
 Alpha virt. eigenvalues --    1.38545   1.39059   1.39653   1.39920   1.40334
 Alpha virt. eigenvalues --    1.40462   1.40713   1.40883   1.41535   1.42198
 Alpha virt. eigenvalues --    1.42779   1.43580   1.43807   1.44191   1.45275
 Alpha virt. eigenvalues --    1.45276   1.45721   1.46405   1.46825   1.47126
 Alpha virt. eigenvalues --    1.47393   1.47834   1.48208   1.48862   1.49448
 Alpha virt. eigenvalues --    1.49475   1.49596   1.50029   1.50092   1.50524
 Alpha virt. eigenvalues --    1.50616   1.51376   1.51396   1.52802   1.52947
 Alpha virt. eigenvalues --    1.53071   1.53820   1.54271   1.54394   1.54442
 Alpha virt. eigenvalues --    1.54590   1.54765   1.55014   1.55065   1.55602
 Alpha virt. eigenvalues --    1.56389   1.57536   1.57625   1.57784   1.57848
 Alpha virt. eigenvalues --    1.59312   1.59558   1.60105   1.60322   1.60674
 Alpha virt. eigenvalues --    1.61190   1.61465   1.62419   1.62981   1.63844
 Alpha virt. eigenvalues --    1.64621   1.65663   1.65973   1.66381   1.67516
 Alpha virt. eigenvalues --    1.69135   1.69468   1.69872   1.70503   1.70551
 Alpha virt. eigenvalues --    1.70580   1.70794   1.71906   1.71975   1.72044
 Alpha virt. eigenvalues --    1.73011   1.73385   1.73416   1.73493   1.73762
 Alpha virt. eigenvalues --    1.73774   1.73901   1.74473   1.74599   1.75374
 Alpha virt. eigenvalues --    1.77009   1.78184   1.78477   1.79271   1.79661
 Alpha virt. eigenvalues --    1.79941   1.80034   1.80194   1.80769   1.81306
 Alpha virt. eigenvalues --    1.81797   1.81806   1.82407   1.82461   1.82799
 Alpha virt. eigenvalues --    1.82943   1.84521   1.84678   1.84733   1.85137
 Alpha virt. eigenvalues --    1.85319   1.86417   1.87086   1.87320   1.87650
 Alpha virt. eigenvalues --    1.87722   1.88193   1.88321   1.88467   1.88475
 Alpha virt. eigenvalues --    1.88673   1.88894   1.89000   1.90444   1.90996
 Alpha virt. eigenvalues --    1.91078   1.91273   1.91421   1.92231   1.92407
 Alpha virt. eigenvalues --    1.92571   1.92972   1.93248   1.93449   1.93484
 Alpha virt. eigenvalues --    1.93571   1.94094   1.94334   1.94586   1.95142
 Alpha virt. eigenvalues --    1.95494   1.95803   1.95900   1.96397   1.97429
 Alpha virt. eigenvalues --    1.98173   1.99665   2.00445   2.00539   2.00629
 Alpha virt. eigenvalues --    2.00828   2.01034   2.02153   2.02504   2.03830
 Alpha virt. eigenvalues --    2.04862   2.05501   2.07362   2.07831   2.08824
 Alpha virt. eigenvalues --    2.09051   2.09338   2.10195   2.10616   2.10715
 Alpha virt. eigenvalues --    2.10912   2.11872   2.12923   2.13822   2.14912
 Alpha virt. eigenvalues --    2.15291   2.16060   2.16375   2.16709   2.17019
 Alpha virt. eigenvalues --    2.17900   2.19576   2.20429   2.20968   2.21381
 Alpha virt. eigenvalues --    2.22319   2.22469   2.22665   2.23042   2.23450
 Alpha virt. eigenvalues --    2.24202   2.24669   2.25237   2.26380   2.26641
 Alpha virt. eigenvalues --    2.26754   2.27468   2.27634   2.27922   2.27964
 Alpha virt. eigenvalues --    2.27983   2.29273   2.29378   2.29774   2.31573
 Alpha virt. eigenvalues --    2.33269   2.34790   2.35295   2.36461   2.38862
 Alpha virt. eigenvalues --    2.38882   2.40086   2.40271   2.40470   2.41294
 Alpha virt. eigenvalues --    2.42641   2.42969   2.44690   2.44733   2.45319
 Alpha virt. eigenvalues --    2.45506   2.46076   2.46526   2.46735   2.48920
 Alpha virt. eigenvalues --    2.50274   2.52269   2.52417   2.53249   2.53794
 Alpha virt. eigenvalues --    2.54317   2.54853   2.54992   2.55986   2.56576
 Alpha virt. eigenvalues --    2.56635   2.58128   2.58417   2.58824   2.59417
 Alpha virt. eigenvalues --    2.59435   2.59815   2.60562   2.60774   2.60912
 Alpha virt. eigenvalues --    2.61140   2.61348   2.61600   2.61946   2.62711
 Alpha virt. eigenvalues --    2.63017   2.63370   2.63655   2.64025   2.64450
 Alpha virt. eigenvalues --    2.64719   2.65044   2.65739   2.65858   2.66671
 Alpha virt. eigenvalues --    2.66981   2.67013   2.67517   2.67538   2.67986
 Alpha virt. eigenvalues --    2.68442   2.68610   2.68812   2.69061   2.69412
 Alpha virt. eigenvalues --    2.69469   2.69739   2.70068   2.70445   2.70496
 Alpha virt. eigenvalues --    2.70683   2.70818   2.71319   2.71933   2.73081
 Alpha virt. eigenvalues --    2.73505   2.74272   2.74287   2.74878   2.75589
 Alpha virt. eigenvalues --    2.75746   2.76617   2.76947   2.77741   2.78245
 Alpha virt. eigenvalues --    2.78430   2.78675   2.78832   2.79047   2.79641
 Alpha virt. eigenvalues --    2.80201   2.80447   2.81256   2.81603   2.82830
 Alpha virt. eigenvalues --    2.82834   2.83166   2.84852   2.85779   2.86145
 Alpha virt. eigenvalues --    2.86345   2.86645   2.86733   2.87822   2.87932
 Alpha virt. eigenvalues --    2.89391   2.90063   2.90451   2.91180   2.91801
 Alpha virt. eigenvalues --    2.92504   2.92686   2.93262   2.94112   2.94423
 Alpha virt. eigenvalues --    2.94927   2.95430   2.95660   2.97765   2.97917
 Alpha virt. eigenvalues --    2.98760   3.00300   3.00595   3.02941   3.03618
 Alpha virt. eigenvalues --    3.04405   3.05547   3.06731   3.07005   3.07251
 Alpha virt. eigenvalues --    3.08296   3.08840   3.15682   3.15792   3.16158
 Alpha virt. eigenvalues --    3.17024   3.17319   3.17748   3.19631   3.19868
 Alpha virt. eigenvalues --    3.20809   3.21152   3.23190   3.24610   3.29112
 Alpha virt. eigenvalues --    3.29657   3.30135   3.30602   3.31420   3.32711
 Alpha virt. eigenvalues --    3.35095   3.35588   3.36113   3.36319   3.36767
 Alpha virt. eigenvalues --    3.36955   3.37014   3.37796   3.38224   3.38954
 Alpha virt. eigenvalues --    3.39686   3.40891   3.41100   3.43112   3.45011
 Alpha virt. eigenvalues --    3.45108   3.45837   3.46458   3.48440   3.48517
 Alpha virt. eigenvalues --    3.49619   3.49855   3.50629   3.51303   3.53079
 Alpha virt. eigenvalues --    3.54287   3.57181   3.58363   3.58527   3.59612
 Alpha virt. eigenvalues --    3.61568   3.62509   3.62623   3.63260   3.63603
 Alpha virt. eigenvalues --    3.64035   3.65793   3.66129   3.66290   3.67260
 Alpha virt. eigenvalues --    3.67715   3.68033   3.69251   3.69323   4.00064
 Alpha virt. eigenvalues --    4.00120   4.01460   4.01641   4.01710   4.01795
 Alpha virt. eigenvalues --    4.02759   4.03093   4.15732   4.16269   4.17203
 Alpha virt. eigenvalues --    4.17661   4.18261   4.19858   4.21024   4.22116
 Alpha virt. eigenvalues --    4.22137   4.22779   4.23620   4.24717   4.25354
 Alpha virt. eigenvalues --    4.27799   4.38048   4.40068   4.61854   4.63660
 Alpha virt. eigenvalues --    4.78650   4.79238   4.80002   4.80255   4.80706
 Alpha virt. eigenvalues --    4.81724   4.82012   4.82453   4.83947   4.84370
 Alpha virt. eigenvalues --   23.39211  23.40973  23.54729  23.56322  23.69394
 Alpha virt. eigenvalues --   23.70669  23.77287  23.78438  23.80608  23.81265
 Alpha virt. eigenvalues --   23.81793  23.82685  23.85939  23.87074  23.88870
 Alpha virt. eigenvalues --   23.89277  23.90052  23.90137  23.91997  23.93337
 Alpha virt. eigenvalues --   23.97037  23.97956  23.98448  23.99181  24.08618
 Alpha virt. eigenvalues --   24.09415  24.09867  24.10040  24.10717  24.11316
 Alpha virt. eigenvalues --   24.11807  24.13227  24.13283  24.13848  24.14775
 Alpha virt. eigenvalues --   24.15273  24.15307  24.15476  24.16475  24.16509
 Alpha virt. eigenvalues --   24.19956  24.20001  24.21329  24.21379
          Condensed to atoms (all electrons):
 Mulliken charges:
               1
     1  C   -0.034054
     2  C   -0.062629
     3  C   -0.086254
     4  C   -0.049382
     5  C   -0.086023
     6  C   -0.089573
     7  C   -0.063653
     8  C   -0.022026
     9  C   -0.001699
    10  C   -0.062600
    11  H    0.085614
    12  H    0.076753
    13  H    0.077747
    14  H    0.084659
    15  H    0.096978
    16  H    0.097823
    17  C   -0.067272
    18  C   -0.022026
    19  C   -0.005891
    20  C   -0.062600
    21  H    0.075513
    22  H    0.076413
    23  C   -0.063653
    24  C   -0.034054
    25  C   -0.001699
    26  C   -0.062629
    27  H    0.076753
    28  H    0.077747
    29  C   -0.086254
    30  C   -0.086023
    31  C   -0.049382
    32  C   -0.089573
    33  H    0.085614
    34  H    0.097823
    35  H    0.096978
    36  H    0.084659
    37  C   -0.032325
    38  C   -0.104938
    39  C   -0.061743
    40  C   -0.054889
    41  C   -0.087559
    42  C   -0.113364
    43  C   -0.028165
    44  C   -0.021464
    45  C   -0.015084
    46  C   -0.108333
    47  H    0.079239
    48  H    0.071146
    49  H    0.115117
    50  H    0.115780
    51  H    0.088098
    52  H    0.091786
    53  C   -0.032322
    54  C   -0.021464
    55  C   -0.019545
    56  C   -0.108333
    57  H    0.069750
    58  H    0.113384
    59  C   -0.028165
    60  C   -0.032325
    61  C   -0.015084
    62  C   -0.104938
    63  H    0.071146
    64  H    0.115117
    65  C   -0.061743
    66  C   -0.087559
    67  C   -0.054889
    68  C   -0.113364
    69  H    0.079239
    70  H    0.091786
    71  H    0.088098
    72  H    0.115780
 Sum of Mulliken charges =   0.00000
 Mulliken charges with hydrogens summed into heavy atoms:
               1
     1  C   -0.034054
     2  C   -0.062629
     3  C   -0.000640
     4  C    0.035277
     5  C    0.011800
     6  C    0.007405
     7  C    0.013101
     8  C   -0.022026
     9  C    0.076047
    10  C   -0.062600
    17  C    0.008241
    18  C   -0.022026
    19  C    0.070522
    20  C   -0.062600
    23  C    0.013101
    24  C   -0.034054
    25  C    0.076047
    26  C   -0.062629
    29  C   -0.000640
    30  C    0.011800
    31  C    0.035277
    32  C    0.007405
    37  C   -0.032325
    38  C   -0.104938
    39  C    0.017496
    40  C    0.060892
    41  C    0.004226
    42  C   -0.025266
    43  C    0.042981
    44  C   -0.021464
    45  C    0.100034
    46  C   -0.108333
    53  C    0.037428
    54  C   -0.021464
    55  C    0.093839
    56  C   -0.108333
    59  C    0.042981
    60  C   -0.032325
    61  C    0.100034
    62  C   -0.104938
    65  C    0.017496
    66  C    0.004226
    67  C    0.060892
    68  C   -0.025266
         Mulliken charges condensed to fragments:
      1      0.002128
      2     -0.002128
 Electronic spatial extent (au):  <R**2>=          27086.3137
 Charge=              0.0000 electrons
 Dipole moment (field-independent basis, Debye):
    X=             -0.7104    Y=             -1.2085    Z=              0.0000  Tot=              1.4018
 Quadrupole moment (field-independent basis, Debye-Ang):
   XX=           -246.0806   YY=           -248.7545   ZZ=           -219.2151
   XY=              0.3776   XZ=              0.0000   YZ=              0.0000
 Traceless Quadrupole moment (field-independent basis, Debye-Ang):
   XX=             -8.0638   YY=            -10.7378   ZZ=             18.8016
   XY=              0.3776   XZ=              0.0000   YZ=              0.0000
 Octapole moment (field-independent basis, Debye-Ang**2):
  XXX=            -66.0256  YYY=            188.2188  ZZZ=              0.0000  XYY=             14.2142
  XXY=            -75.4266  XXZ=              0.0000  XZZ=            -12.6343  YZZ=            -28.5789
  YYZ=              0.0000  XYZ=              0.0000
 Hexadecapole moment (field-independent basis, Debye-Ang**3):
 XXXX=          -2195.5684 YYYY=         -12455.6367 ZZZZ=         -21000.1667 XXXY=          -1608.1235
 XXXZ=              0.0000 YYYX=          -1620.3909 YYYZ=              0.0000 ZZZX=              0.0000
 ZZZY=              0.0000 XXYY=          -2519.0514 XXZZ=          -4302.6091 YYZZ=          -5840.0204
 XXYZ=              0.0000 YYXZ=              0.0000 ZZXY=           -474.3855
 N-N= 4.549036725884D+03 E-N=-1.302850588213D+04  KE= 1.686681978188D+03
 Symmetry A'   KE= 9.134180122393D+02
 Symmetry A"   KE= 7.732639659483D+02
 No NMR shielding tensors so no spin-rotation constants.
 Leave Link  601 at Wed Sep 27 16:39:47 2023, MaxMem=  3221225472 cpu:              49.0 elap:               1.3
 (Enter /home/center/opt/aarch64/apps/gaussian16/c01/g16/l122.exe)
 CPIOFr:  IOpCl= 0 IRwI=-1 IRwCP=  731 ICalc= -1 LCPTot=     1419224 Len1MO=     3708034 IndFrg=     1419224
 CPIOFr:  IOpCl= 0 IRwI=-1 IRwCP=  731 ICalc=  0 LCPTot=     1419224 Len1MO=     3708034 IndFrg=     5127258
 Counterpoise: doing calculation for fragment   1 using the basis set of the full-system, NewBq=T
 Leave Link  122 at Wed Sep 27 16:39:49 2023, MaxMem=  3221225472 cpu:               8.4 elap:               0.4
 (Enter /home/center/opt/aarch64/apps/gaussian16/c01/g16/l301.exe)
 Basis read from rwf:  (5D, 7F)
 No pseudopotential information found on rwf file.
 There are   528 symmetry adapted cartesian basis functions of A'  symmetry.
 There are   476 symmetry adapted cartesian basis functions of A"  symmetry.
 There are   504 symmetry adapted basis functions of A'  symmetry.
 There are   456 symmetry adapted basis functions of A"  symmetry.
   960 basis functions,  1632 primitive gaussians,  1004 cartesian basis functions
    73 alpha electrons       73 beta electrons
       nuclear repulsion energy      1494.3575061132 Hartrees.
 IExCor=  402 DFT=T Ex+Corr=B3LYP ExCW=0 ScaHFX=  0.200000
 ScaDFX=  0.800000  0.720000  1.000000  0.810000 ScalE2=  1.000000  1.000000
 IRadAn=      5 IRanWt=     -1 IRanGd=            0 ICorTp=0 IEmpDi=131
 NAtoms=   72 NActive=   72 NUniq=   40 SFac= 3.24D+00 NAtFMM=   60 NAOKFM=T Big=F
 Integral buffers will be    131072 words long.
 Raffenetti 2 integral format.
 Two-electron integral symmetry is turned on.
 R6Disp:  Grimme-D3 Dispersion energy=       -0.0303938888 Hartrees.
 Nuclear repulsion after empirical dispersion term =     1494.3271122244 Hartrees.
 No density basis found on file    718.
 Leave Link  301 at Wed Sep 27 16:39:52 2023, MaxMem=  3221225472 cpu:               2.1 elap:               0.1
 (Enter /home/center/opt/aarch64/apps/gaussian16/c01/g16/l302.exe)
 NPDir=0 NMtPBC=     1 NCelOv=     1 NCel=       1 NClECP=     1 NCelD=      1
         NCelK=      1 NCelE2=     1 NClLst=     1 CellRange=     0.0.
 One-electron integrals computed using PRISM.
 One-electron integral symmetry used in STVInt
 NBasis=   960 RedAO= T EigKep=  3.82D-05  NBF=   504   456
 NBsUse=   960 1.00D-06 EigRej= -1.00D+00 NBFU=   504   456
 Precomputing XC quadrature grid using
 IXCGrd= 4 IRadAn=           5 IRanWt=          -1 IRanGd=           0 AccXCQ= 0.00D+00.
 Generated NRdTot=       0 NPtTot=           0 NUsed=           0 NTot=          32
 NSgBfM=   989   989   989   989   989 MxSgAt=    72 MxSgA2=    72.
 Leave Link  302 at Wed Sep 27 16:39:56 2023, MaxMem=  3221225472 cpu:              58.9 elap:               1.6
 (Enter /home/center/opt/aarch64/apps/gaussian16/c01/g16/l303.exe)
 DipDrv:  MaxL=1.
 Leave Link  303 at Wed Sep 27 16:39:58 2023, MaxMem=  3221225472 cpu:              12.4 elap:               0.3
 (Enter /home/center/opt/aarch64/apps/gaussian16/c01/g16/l401.exe)
 ExpMin= 1.03D-01 ExpMax= 4.56D+03 ExpMxC= 6.82D+02 IAcc=3 IRadAn=         5 AccDes= 0.00D+00
 Harris functional with IExCor=  402 and IRadAn=       5 diagonalized for initial guess.
 HarFok:  IExCor=  402 AccDes= 0.00D+00 IRadAn=         5 IDoV= 1 UseB2=F ITyADJ=14
 ICtDFT=  3500011 ScaDFX=  1.000000  1.000000  1.000000  1.000000
 FoFCou: FMM=F IPFlag=           0 FMFlag=      100000 FMFlg1=        2000
         NFxFlg=           0 DoJE=T BraDBF=F KetDBF=T FulRan=T
         wScrn=  0.000000 ICntrl=       500 IOpCl=  0 I1Cent=   200000004 NGrid=           0
         NMat0=    1 NMatS0=      1 NMatT0=    0 NMatD0=    1 NMtDS0=    0 NMtDT0=    0
 Petite list used in FoFCou.
 Harris En= -847.065682073499    
 JPrj=0 DoOrth=F DoCkMO=F.
 Initial guess orbital symmetries:
       Occupied  (A") (A') (A') (A") (A") (A') (A") (A') (A') (A")
                 (A") (A') (A') (A') (A") (A') (A") (A') (A") (A')
                 (A') (A") (A') (A") (A') (A") (A') (A') (A") (A')
                 (A") (A") (A') (A') (A") (A") (A') (A") (A') (A')
                 (A') (A") (A") (A") (A') (A') (A") (A') (A') (A")
                 (A') (A") (A") (A') (A') (A") (A') (A") (A') (A")
                 (A") (A') (A') (A") (A') (A") (A') (A") (A') (A')
                 (A") (A") (A')
       Virtual   (A') (A") (A") (A') (A') (A") (A') (A") (A') (A")
                 (A') (A') (A") (A') (A") (A') (A") (A') (A') (A")
                 (A") (A") (A') (A') (A") (A') (A') (A') (A') (A")
                 (A') (A") (A') (A") (A") (A') (A') (A") (A") (A')
                 (A') (A") (A") (A') (A") (A') (A") (A') (A") (A')
                 (A') (A") (A") (A') (A') (A") (A') (A') (A") (A')
                 (A") (A') (A') (A") (A") (A') (A") (A') (A") (A')
                 (A') (A") (A") (A") (A') (A') (A') (A') (A') (A")
                 (A') (A') (A") (A') (A") (A") (A') (A") (A') (A")
                 (A") (A") (A") (A') (A") (A') (A") (A') (A') (A')
                 (A') (A") (A') (A') (A") (A') (A') (A") (A') (A")
                 (A') (A") (A") (A') (A") (A") (A') (A") (A') (A")
                 (A") (A') (A') (A") (A') (A') (A') (A") (A') (A")
                 (A") (A') (A') (A') (A") (A") (A') (A') (A') (A")
                 (A') (A') (A") (A') (A") (A") (A') (A") (A") (A')
                 (A") (A') (A") (A") (A') (A") (A') (A') (A') (A")
                 (A') (A') (A") (A") (A') (A") (A') (A") (A') (A")
                 (A") (A') (A') (A") (A') (A") (A') (A") (A') (A')
                 (A") (A") (A') (A') (A") (A") (A') (A") (A') (A')
                 (A") (A') (A') (A") (A') (A') (A") (A") (A') (A')
                 (A") (A") (A") (A") (A') (A") (A') (A') (A") (A')
                 (A') (A') (A") (A") (A") (A') (A") (A') (A") (A")
                 (A') (A') (A') (A') (A") (A") (A') (A') (A') (A")
                 (A') (A') (A") (A") (A") (A') (A") (A') (A") (A")
                 (A") (A') (A') (A') (A") (A') (A') (A") (A") (A")
                 (A") (A') (A") (A') (A') (A') (A') (A') (A") (A")
                 (A') (A") (A") (A') (A') (A') (A") (A") (A') (A")
                 (A') (A') (A") (A") (A") (A') (A") (A') (A') (A")
                 (A") (A') (A") (A') (A') (A') (A") (A") (A') (A")
                 (A') (A') (A") (A') (A') (A") (A') (A') (A") (A')
                 (A") (A') (A") (A') (A") (A') (A") (A") (A") (A")
                 (A") (A') (A') (A') (A") (A') (A') (A') (A") (A")
                 (A') (A') (A") (A") (A') (A') (A") (A') (A") (A')
                 (A") (A') (A') (A') (A") (A') (A") (A') (A") (A')
                 (A") (A') (A") (A") (A') (A") (A") (A') (A') (A')
                 (A') (A") (A") (A') (A") (A') (A") (A') (A') (A')
                 (A") (A') (A') (A") (A") (A") (A") (A') (A') (A")
                 (A") (A') (A') (A") (A') (A") (A") (A') (A") (A')
                 (A") (A') (A') (A") (A") (A') (A') (A") (A') (A')
                 (A") (A") (A") (A') (A') (A') (A") (A") (A') (A")
                 (A') (A') (A") (A") (A") (A') (A") (A') (A') (A")
                 (A') (A") (A') (A') (A') (A") (A") (A') (A") (A')
                 (A") (A') (A") (A") (A') (A') (A") (A") (A') (A")
                 (A") (A') (A') (A') (A') (A') (A") (A") (A") (A')
                 (A") (A') (A') (A") (A') (A') (A") (A") (A") (A")
                 (A') (A') (A') (A') (A') (A") (A') (A") (A") (A")
                 (A") (A') (A') (A") (A') (A") (A") (A') (A') (A')
                 (A") (A') (A") (A") (A') (A") (A") (A') (A') (A")
                 (A') (A") (A") (A') (A") (A') (A') (A") (A") (A')
                 (A") (A') (A') (A") (A') (A") (A') (A") (A') (A")
                 (A') (A") (A') (A") (A') (A') (A") (A") (A') (A")
                 (A') (A') (A") (A") (A') (A") (A") (A') (A') (A')
                 (A") (A") (A') (A") (A') (A") (A') (A') (A") (A')
                 (A') (A") (A") (A') (A') (A") (A') (A') (A") (A')
                 (A") (A") (A') (A') (A') (A") (A') (A") (A") (A')
                 (A") (A") (A') (A") (A') (A') (A") (A') (A') (A")
                 (A') (A") (A') (A") (A") (A") (A') (A') (A") (A")
                 (A') (A') (A') (A') (A") (A') (A') (A") (A") (A')
                 (A") (A") (A') (A") (A') (A') (A") (A") (A") (A')
                 (A") (A') (A') (A') (A') (A") (A') (A") (A') (A")
                 (A") (A') (A") (A") (A') (A') (A") (A') (A") (A')
                 (A") (A') (A') (A") (A') (A") (A') (A") (A') (A")
                 (A') (A') (A") (A") (A') (A") (A") (A') (A') (A")
                 (A") (A') (A") (A") (A") (A') (A') (A') (A') (A")
                 (A') (A") (A') (A") (A') (A') (A") (A") (A') (A")
                 (A') (A") (A') (A") (A') (A") (A') (A") (A") (A')
                 (A") (A') (A') (A") (A") (A') (A") (A") (A') (A')
                 (A') (A") (A") (A') (A') (A") (A') (A") (A') (A')
                 (A") (A') (A") (A') (A") (A') (A") (A') (A') (A")
                 (A') (A") (A') (A') (A") (A") (A') (A") (A') (A')
[...]
                 (A") (A') (A') (A") (A') (A") (A") (A") (A') (A")
                 (A') (A') (A') (A') (A') (A") (A') (A') (A") (A")
                 (A") (A') (A') (A') (A") (A') (A") (A") (A") (A')
                 (A') (A") (A') (A") (A") (A') (A") (A') (A') (A')
                 (A') (A') (A") (A") (A") (A") (A') (A") (A') (A")
                 (A') (A') (A') (A") (A") (A') (A') (A") (A') (A")
                 (A') (A") (A") (A") (A') (A') (A") (A') (A') (A")
                 (A') (A") (A") (A') (A') (A") (A') (A") (A') (A")
                 (A") (A') (A') (A') (A') (A") (A") (A") (A') (A")
                 (A') (A") (A') (A") (A') (A') (A") (A") (A') (A")
                 (A') (A") (A') (A") (A') (A') (A") (A') (A") (A")
                 (A') (A") (A') (A') (A") (A") (A') (A") (A') (A")
                 (A') (A') (A") (A') (A') (A") (A") (A') (A') (A')
                 (A") (A') (A") (A") (A") (A") (A') (A") (A') (A')
                 (A") (A') (A") (A') (A') (A') (A") (A') (A") (A')
                 (A") (A") (A') (A') (A") (A") (A') (A') (A") (A')
                 (A') (A') (A') (A") (A") (A") (A") (A') (A') (A")
                 (A') (A") (A") (A') (A") (A') (A") (A') (A") (A')
                 (A") (A') (A') (A") (A') (A") (A") (A') (A') (A")
                 (A") (A') (A') (A") (A") (A') (A") (A") (A") (A')
                 (A') (A") (A') (A') (A") (A') (A') (A") (A') (A")
                 (A") (A') (A") (A') (A') (A") (A") (A") (A') (A')
                 (A") (A') (A') (A") (A") (A") (A') (A") (A') (A')
                 (A") (A') (A") (A') (A") (A') (A') (A') (A") (A')
                 (A") (A") (A') (A') (A") (A") (A') (A") (A') (A")
                 (A') (A') (A") (A") (A') (A') (A") (A') (A') (A')
                 (A") (A") (A') (A") (A') (A") (A') (A") (A') (A')
                 (A') (A") (A") (A") (A') (A") (A') (A') (A') (A")
                 (A") (A') (A") (A') (A') (A") (A') (A") (A") (A')
                 (A') (A") (A') (A") (A") (A') (A') (A") (A') (A")
                 (A') (A") (A') (A") (A') (A") (A") (A') (A') (A")
                 (A') (A") (A') (A') (A") (A") (A') (A") (A') (A')
                 (A") (A') (A") (A') (A') (A") (A') (A") (A') (A")
                 (A") (A') (A") (A') (A") (A') (A") (A') (A') (A")
                 (A") (A') (A") (A') (A') (A") (A") (A') (A') (A")
                 (A') (A") (A') (A") (A') (A') (A")
 The electronic state is 1-A'.
 Alpha  occ. eigenvalues --  -10.18931 -10.18930 -10.18896 -10.18895 -10.18848
 Alpha  occ. eigenvalues --  -10.18848 -10.18813 -10.18813 -10.17956 -10.17955
 Alpha  occ. eigenvalues --  -10.17920 -10.17920 -10.17919 -10.17919 -10.17875
 Alpha  occ. eigenvalues --  -10.17875 -10.17863 -10.17863 -10.17808 -10.17808
 Alpha  occ. eigenvalues --  -10.17781 -10.17781  -0.89340  -0.87865  -0.85549
 Alpha  occ. eigenvalues --   -0.82415  -0.79820  -0.78521  -0.78314  -0.75991
 Alpha  occ. eigenvalues --   -0.74255  -0.72901  -0.69196  -0.67344  -0.62728
 Alpha  occ. eigenvalues --   -0.62370  -0.61108  -0.59964  -0.59301  -0.57689
 Alpha  occ. eigenvalues --   -0.52709  -0.52573  -0.52293  -0.49654  -0.48513
 Alpha  occ. eigenvalues --   -0.47160  -0.46110  -0.45590  -0.45476  -0.43928
 Alpha  occ. eigenvalues --   -0.43182  -0.42578  -0.41808  -0.41572  -0.41386
 Alpha  occ. eigenvalues --   -0.40692  -0.40405  -0.39579  -0.38193  -0.36732
 Alpha  occ. eigenvalues --   -0.36341  -0.35550  -0.34094  -0.33809  -0.33058
 Alpha  occ. eigenvalues --   -0.32930  -0.31612  -0.29665  -0.28406  -0.26623
 Alpha  occ. eigenvalues --   -0.24364  -0.22582  -0.17855
 Alpha virt. eigenvalues --   -0.09755  -0.04464  -0.02747  -0.00147   0.02073
 Alpha virt. eigenvalues --    0.02370   0.03189   0.04746   0.04859   0.04871
 Alpha virt. eigenvalues --    0.06161   0.06575   0.07968   0.08162   0.08303
 Alpha virt. eigenvalues --    0.09607   0.10049   0.11524   0.11533   0.13796
 Alpha virt. eigenvalues --    0.14111   0.14670   0.18092   0.18194   0.18832
 Alpha virt. eigenvalues --    0.19391   0.22815   0.23002   0.24379   0.24942
 Alpha virt. eigenvalues --    0.25581   0.27528   0.27575   0.28012   0.28228
 Alpha virt. eigenvalues --    0.28947   0.29389   0.30158   0.30759   0.31175
 Alpha virt. eigenvalues --    0.32897   0.34528   0.36420   0.36484   0.37134
 Alpha virt. eigenvalues --    0.37503   0.37629   0.37651   0.38116   0.38643
 Alpha virt. eigenvalues --    0.39094   0.39439   0.39739   0.40236   0.40435
 Alpha virt. eigenvalues --    0.41918   0.41926   0.41940   0.42289   0.42318
 Alpha virt. eigenvalues --    0.42643   0.43748   0.44233   0.44835   0.45295
 Alpha virt. eigenvalues --    0.45683   0.45924   0.45953   0.46379   0.47165
 Alpha virt. eigenvalues --    0.47805   0.47809   0.47978   0.48073   0.48231
 Alpha virt. eigenvalues --    0.48568   0.49414   0.49572   0.51377   0.51846
 Alpha virt. eigenvalues --    0.52370   0.53118   0.53671   0.55998   0.57923
 Alpha virt. eigenvalues --    0.57955   0.59048   0.59201   0.60433   0.60585
 Alpha virt. eigenvalues --    0.60693   0.61101   0.61690   0.62105   0.62173
 Alpha virt. eigenvalues --    0.63432   0.63481   0.64458   0.64535   0.65533
 Alpha virt. eigenvalues --    0.66693   0.66910   0.67680   0.67724   0.70658
 Alpha virt. eigenvalues --    0.71305   0.71405   0.71494   0.72803   0.73989
 Alpha virt. eigenvalues --    0.75405   0.75894   0.76289   0.77801   0.77809
 Alpha virt. eigenvalues --    0.78943   0.79160   0.79723   0.81162   0.81509
 Alpha virt. eigenvalues --    0.82881   0.83001   0.84383   0.84585   0.84713
 Alpha virt. eigenvalues --    0.88087   0.89711   0.89765   0.91536   0.92083
 Alpha virt. eigenvalues --    0.92578   0.93749   0.95806   0.96107   0.96442
 Alpha virt. eigenvalues --    0.96590   0.96905   0.98547   1.00356   1.01118
 Alpha virt. eigenvalues --    1.02686   1.03027   1.03354   1.04405   1.05244
 Alpha virt. eigenvalues --    1.05439   1.05525   1.05950   1.07395   1.07547
 Alpha virt. eigenvalues --    1.07686   1.08438   1.10005   1.10036   1.12070
 Alpha virt. eigenvalues --    1.13223   1.13544   1.13650   1.14526   1.15341
 Alpha virt. eigenvalues --    1.17432   1.18332   1.19657   1.20432   1.23014
 Alpha virt. eigenvalues --    1.23618   1.27884   1.28234   1.30579   1.32076
 Alpha virt. eigenvalues --    1.32743   1.34942   1.37641   1.39236   1.39896
 Alpha virt. eigenvalues --    1.39942   1.40725   1.42751   1.43476   1.43554
 Alpha virt. eigenvalues --    1.45057   1.46086   1.47119   1.47538   1.48841
 Alpha virt. eigenvalues --    1.49280   1.49417   1.50258   1.50674   1.52268
 Alpha virt. eigenvalues --    1.52650   1.53402   1.54331   1.54372   1.54781
 Alpha virt. eigenvalues --    1.54807   1.57107   1.57715   1.58569   1.59882
 Alpha virt. eigenvalues --    1.60106   1.62692   1.63242   1.64856   1.66641
 Alpha virt. eigenvalues --    1.69292   1.69605   1.69709   1.70649   1.71804
 Alpha virt. eigenvalues --    1.72459   1.72619   1.73075   1.73096   1.73680
 Alpha virt. eigenvalues --    1.77494   1.78519   1.79157   1.79419   1.80511
 Alpha virt. eigenvalues --    1.81616   1.81887   1.82058   1.83581   1.84039
 Alpha virt. eigenvalues --    1.85487   1.87392   1.87456   1.87577   1.87728
 Alpha virt. eigenvalues --    1.88131   1.88613   1.90743   1.91387   1.92190
 Alpha virt. eigenvalues --    1.92193   1.92572   1.92670   1.93517   1.93938
 Alpha virt. eigenvalues --    1.94544   1.95483   1.97262   1.99429   2.00088
 Alpha virt. eigenvalues --    2.00602   2.01362   2.03019   2.05757   2.08293
 Alpha virt. eigenvalues --    2.09111   2.09256   2.09792   2.12192   2.14098
 Alpha virt. eigenvalues --    2.15528   2.15584   2.17200   2.19751   2.20833
 Alpha virt. eigenvalues --    2.21576   2.22525   2.23381   2.24503   2.26441
 Alpha virt. eigenvalues --    2.26972   2.27242   2.27719   2.28046   2.29391
 Alpha virt. eigenvalues --    2.33301   2.35725   2.39155   2.39384   2.40817
 Alpha virt. eigenvalues --    2.42649   2.43076   2.45776   2.45994   2.46870
 Alpha virt. eigenvalues --    2.51623   2.51954   2.53354   2.53485   2.55138
 Alpha virt. eigenvalues --    2.56159   2.58701   2.58838   2.59764   2.59776
 Alpha virt. eigenvalues --    2.60682   2.61147   2.61719   2.62222   2.63349
 Alpha virt. eigenvalues --    2.63999   2.64478   2.66054   2.66794   2.67121
 Alpha virt. eigenvalues --    2.67374   2.68356   2.68872   2.68876   2.69372
 Alpha virt. eigenvalues --    2.69557   2.69907   2.70083   2.70281   2.73482
 Alpha virt. eigenvalues --    2.74771   2.74836   2.76066   2.77101   2.77577
 Alpha virt. eigenvalues --    2.78232   2.78455   2.78850   2.80822   2.82359
 Alpha virt. eigenvalues --    2.85535   2.85993   2.86737   2.87294   2.90966
 Alpha virt. eigenvalues --    2.91783   2.92195   2.93676   2.95232   2.95887
 Alpha virt. eigenvalues --    2.99270   2.99858   3.03165   3.05604   3.06852
 Alpha virt. eigenvalues --    3.07371   3.15988   3.16029   3.16647   3.19843
 Alpha virt. eigenvalues --    3.20017   3.23601   3.29134   3.29680   3.31610
 Alpha virt. eigenvalues --    3.35095   3.35458   3.35677   3.35858   3.38023
 Alpha virt. eigenvalues --    3.39887   3.41413   3.44960   3.45362   3.47993
 Alpha virt. eigenvalues --    3.48278   3.50401   3.53073   3.57439   3.58649
 Alpha virt. eigenvalues --    3.61466   3.62620   3.63208   3.63698   3.65910
 Alpha virt. eigenvalues --    3.67534   3.67678   4.00384   4.00442   4.01859
 Alpha virt. eigenvalues --    4.02182   4.16133   4.16678   4.17360   4.21240
 Alpha virt. eigenvalues --    4.22396   4.22517   4.25488   4.38492   4.62290
 Alpha virt. eigenvalues --    4.79179   4.79740   4.80562   4.82562   4.83014
 Alpha virt. eigenvalues --   23.39176  23.54541  23.69085  23.77378  23.80419
 Alpha virt. eigenvalues --   23.81537  23.86099  23.89067  23.89154  23.92210
 Alpha virt. eigenvalues --   23.97563  23.98365  24.09049  24.09932  24.10529
 Alpha virt. eigenvalues --   24.12220  24.13779  24.14375  24.15775  24.15810
 Alpha virt. eigenvalues --   24.20452  24.20497
          Condensed to atoms (all electrons):
 Mulliken charges:
               1
     1  C    0.000000
     2  C    0.000000
     3  C    0.000000
     4  C    0.000000
     5  C    0.000000
     6  C    0.000000
     7  C    0.000000
     8  C    0.000000
     9  C    0.000000
    10  C    0.000000
    11  H    0.000000
    12  H    0.000000
    13  H    0.000000
    14  H    0.000000
    15  H    0.000000
    16  H    0.000000
    17  C    0.000000
    18  C    0.000000
    19  C    0.000000
    20  C    0.000000
    21  H    0.000000
    22  H    0.000000
    23  C    0.000000
    24  C    0.000000
    25  C    0.000000
    26  C    0.000000
    27  H    0.000000
    28  H    0.000000
    29  C    0.000000
    30  C    0.000000
    31  C    0.000000
    32  C    0.000000
    33  H    0.000000
    34  H    0.000000
    35  H    0.000000
    36  H    0.000000
    37  C   -0.059168
    38  C   -0.059168
    39  C   -0.055977
    40  C   -0.055977
    41  C   -0.092198
    42  C   -0.092198
    43  C   -0.016525
    44  C   -0.054498
    45  C   -0.016525
    46  C   -0.054498
    47  H    0.082122
    48  H    0.074853
    49  H    0.074853
    50  H    0.082122
    51  H    0.094847
    52  H    0.094847
    53  C   -0.020341
    54  C   -0.054498
    55  C   -0.020341
    56  C   -0.054498
    57  H    0.073428
    58  H    0.073428
    59  C   -0.016525
    60  C   -0.059168
    61  C   -0.016525
    62  C   -0.059168
    63  H    0.074853
    64  H    0.074853
    65  C   -0.055977
    66  C   -0.092198
    67  C   -0.055977
    68  C   -0.092198
    69  H    0.082122
    70  H    0.094847
    71  H    0.094847
    72  H    0.082122
 Sum of Mulliken charges =   0.00000
 Mulliken charges with hydrogens summed into heavy atoms:
               1
     1  C    0.000000
     2  C    0.000000
     3  C    0.000000
     4  C    0.000000
     5  C    0.000000
     6  C    0.000000
     7  C    0.000000
     8  C    0.000000
     9  C    0.000000
    10  C    0.000000
    17  C    0.000000
    18  C    0.000000
    19  C    0.000000
    20  C    0.000000
    23  C    0.000000
    24  C    0.000000
    25  C    0.000000
    26  C    0.000000
    29  C    0.000000
    30  C    0.000000
    31  C    0.000000
    32  C    0.000000
    37  C   -0.059168
    38  C   -0.059168
    39  C    0.026144
    40  C    0.026144
    41  C    0.002649
    42  C    0.002649
    43  C    0.058328
    44  C   -0.054498
    45  C    0.058328
    46  C   -0.054498
    53  C    0.053087
    54  C   -0.054498
    55  C    0.053087
    56  C   -0.054498
    59  C    0.058328
    60  C   -0.059168
    61  C    0.058328
    62  C   -0.059168
    65  C    0.026144
    66  C    0.002649
    67  C    0.026144
    68  C    0.002649
         Mulliken charges condensed to fragments:
      1      0.000000
      2      0.000000
 Electronic spatial extent (au):  <R**2>=          13241.0873
 Charge=              0.0000 electrons
 Dipole moment (field-independent basis, Debye):
    X=              0.0000    Y=              0.0000    Z=              0.0000  Tot=              0.0000
 Quadrupole moment (field-independent basis, Debye-Ang):
   XX=           -136.3921   YY=           -110.7480   ZZ=           -109.0115
   XY=              0.0000   XZ=              0.0000   YZ=              0.0000
 Traceless Quadrupole moment (field-independent basis, Debye-Ang):
   XX=            -17.6749   YY=              7.9692   ZZ=              9.7057
   XY=              0.0000   XZ=              0.0000   YZ=              0.0000
 Octapole moment (field-independent basis, Debye-Ang**2):
  XXX=            795.6610  YYY=            646.0631  ZZZ=              0.0000  XYY=            215.3544
  XXY=            265.2203  XXZ=              0.0000  XZZ=            211.9776  YZZ=            211.9776
  YYZ=              0.0000  XYZ=              0.0000
 Hexadecapole moment (field-independent basis, Debye-Ang**3):
 XXXX=          -3248.7987 YYYY=          -3629.3128 ZZZZ=         -10461.4324 XXXY=          -1547.1974
 XXXZ=              0.0000 YYYX=          -1256.2979 YYYZ=              0.0000 ZZZX=              0.0000
 ZZZY=              0.0000 XXYY=          -1190.9138 XXZZ=          -2620.1316 YYZZ=          -2381.4140
 XXYZ=              0.0000 YYXZ=              0.0000 ZZXY=           -412.1996
 N-N= 1.494327112237D+03 E-N=-4.953709176031D+03  KE= 8.433374905124D+02
 Symmetry A'   KE= 4.567052305464D+02
 Symmetry A"   KE= 3.866322599660D+02
 No NMR shielding tensors so no spin-rotation constants.
 Leave Link  601 at Wed Sep 27 16:56:57 2023, MaxMem=  3221225472 cpu:              18.6 elap:               0.5
 (Enter /home/center/opt/aarch64/apps/gaussian16/c01/g16/l122.exe)
 CPIOFr:  IOpCl= 0 IRwI=-1 IRwCP=  731 ICalc=  4 LCPTot=     1419224 Len1MO=     3708034 IndFrg=    19959394
 Restoring MOs from calculation   1 to rwf.
 CPIOFr:  IOpCl= 0 IRwI=-2 IRwCP=  731 ICalc=  0 LCPTot=     1419224 Len1MO=     3708034 IndFrg=     5127258
 Counterpoise corrected energy =   -1694.051175511748
                   BSSE energy =       0.001888214199
              sum of fragments =   -1694.039683044260
           complexation energy =      -8.40 kcal/mole (raw)
           complexation energy =      -7.21 kcal/mole (corrected)
 Leave Link  122 at Wed Sep 27 16:56:59 2023, MaxMem=  3221225472 cpu:               8.3 elap:               0.4
 (Enter /home/center/opt/aarch64/apps/gaussian16/c01/g16/l9999.exe)

 Test job not archived.
 1\1\GINC-FX0483\SP\RB3LYP\6-311G(d,p)\C44H28\Z40145W\27-Sep-2023\0\\#P
  TEST b3lyp/6-311G** EmpiricalDispersion=GD3 counterpoise=2\\pentacene
 _A1=0_A2=0_A3=45_p2\\0,1\C,0,-0.5039478476,0.5239478476,-3.6612755801\
 C,0,0.5239480325,-0.5039480325,-3.6612755629\C,0,-0.9861248463,1.00612
 48463,-4.9235927708\C,0,1.0061250889,-0.9861250889,-4.9235926697\C,0,-
 0.4963213507,0.5163213507,-6.096356521\C,0,0.5163216812,-0.4963216812,
 -6.0963564796\C,0,-0.9844684311,1.0044684311,-2.4533174875\C,0,-0.5044
 88426,0.524488426,-1.2140288145\C,0,1.0044685359,-0.9844685359,-2.4533
 173917\C,0,0.5244885437,-0.5044885437,-1.2140288362\H,0,-1.7533559667,
 1.7733559667,-4.9232600459\H,0,-1.7521866813,1.7721866813,-2.453928581
 5\H,0,1.7721859268,-1.7521859268,-2.4539284818\H,0,1.7733558421,-1.753
 3558421,-4.9232597785\H,0,0.8905568758,-0.8705568758,-7.0425276922\H,0
 ,-0.8705565046,0.8905565046,-7.042527775\C,0,-0.9848184961,1.004818496
 1,0.0099998782\C,0,-0.5044883957,0.5244883957,1.2340295553\C,0,1.00481
 85643,-0.9848185643,0.0099998696\C,0,0.5244885146,-0.5044885146,1.2340
 295261\H,0,-1.7524699697,1.7724699697,0.0099999205\H,0,1.772468921,-1.
 752468921,0.0099999641\C,0,-0.9844683048,1.0044683048,2.4733171385\C,0
 ,-0.5039477114,0.5239477114,3.681276331\C,0,1.0044684211,-0.9844684211
 ,2.4733170835\C,0,0.5239479079,-0.5039479079,3.6812763217\H,0,-1.75218
 65527,1.7721865527,2.4739285326\H,0,1.7721858092,-1.7521858092,2.47392
 83796\C,0,-0.9861245177,1.0061245177,4.9435920588\C,0,-0.4963209372,0.
 5163209372,6.116356633\C,0,1.0061247659,-0.9861247659,4.9435919377\C,0
 ,0.5163212637,-0.4963212637,6.1163566075\H,0,-1.7533556504,1.773355650
 4,4.9432601504\H,0,-0.8705567426,0.8905567426,7.0625274368\H,0,0.89055
 70967,-0.8705570967,7.0625272142\H,0,1.7733555414,-1.7533555414,4.9432
 599297\C,0,4.9960521524,0.5239478476,-3.6612755801\C,0,6.0239480325,-0
 .5039480325,-3.6612755629\C,0,4.5138751537,1.0061248463,-4.9235927708\
 C,0,6.5061250889,-0.9861250889,-4.9235926697\C,0,5.0036786493,0.516321
 3507,-6.096356521\C,0,6.0163216812,-0.4963216812,-6.0963564796\C,0,4.5
 155315689,1.0044684311,-2.4533174875\C,0,4.995511574,0.524488426,-1.21
 40288145\C,0,6.5044685359,-0.9844685359,-2.4533173917\C,0,6.0244885437
 ,-0.5044885437,-1.2140288362\H,0,3.7466440333,1.7733559667,-4.92326004
 59\H,0,3.7478133187,1.7721866813,-2.4539285815\H,0,7.2721859268,-1.752
 1859268,-2.4539284818\H,0,7.2733558421,-1.7533558421,-4.9232597785\H,0
 ,6.3905568758,-0.8705568758,-7.0425276922\H,0,4.6294434954,0.890556504
 6,-7.042527775\C,0,4.5151815039,1.0048184961,0.0099998782\C,0,4.995511
 6043,0.5244883957,1.2340295553\C,0,6.5048185643,-0.9848185643,0.009999
 8696\C,0,6.0244885146,-0.5044885146,1.2340295261\H,0,3.7475300303,1.77
 24699697,0.0099999205\H,0,7.272468921,-1.752468921,0.0099999641\C,0,4.
 5155316952,1.0044683048,2.4733171385\C,0,4.9960522886,0.5239477114,3.6
 81276331\C,0,6.5044684211,-0.9844684211,2.4733170835\C,0,6.0239479079,
 -0.5039479079,3.6812763217\H,0,3.7478134473,1.7721865527,2.4739285326\
 H,0,7.2721858092,-1.7521858092,2.4739283796\C,0,4.5138754823,1.0061245
 177,4.9435920588\C,0,5.0036790628,0.5163209372,6.116356633\C,0,6.50612
 47659,-0.9861247659,4.9435919377\C,0,6.0163212637,-0.4963212637,6.1163
 566075\H,0,3.7466443496,1.7733556504,4.9432601504\H,0,4.6294432574,0.8
 905567426,7.0625274368\H,0,6.3905570967,-0.8705570967,7.0625272142\H,0
 ,7.2733555414,-1.7533555414,4.9432599297\\Version=Fujitsu-Arm-G16RevC.
 01\State=1-A'\HF=-847.0198415\RMSD=3.181e-09\Dipole=-0.0000009,0.00000
 11,0.\Quadrupole=-8.6579023,-5.5609791,14.2188813,-17.615403,0.,0.\PG=
 CS [SG(C4H4),X(C40H24)]\\@


 FROM WHENCE IT HAPPENS, THAT THEY WHICH TRUST TO BOOKS, DO AS THEY THAT CAST UP MANY LITTLE SUMMS INTO GREATER,
 WITHOUT CONSIDERING WETHER THOSE LITTLE SUMMES WERE RIGHTLY CAST UP OR NOT...
 AND AT LAST FINDING THE ERROUR VISIBLE, AND NOT MISTRUSTING THEIR FIRST GROUNDS,
 KNOW NOT WHICH WAY TO CLEERE THEMSELVES...
 BUT SPEND TIME IN FLUTTERING OVER THEIR BOOKES....
 AS BIRDS THAT ENTERING BY THE CHIMNEY, AND FINDING THEMSELVES INCLOSED IN A CHAMBER,
 FLUTTER AT THE FALSE LIGHT OF A GLASSE WINDOW,
 FOR WANT OF WIT TO CONSIDER WHICH WAY THEY CAME IN....
           LEVIATHAN
 Job cpu time:       0 days  3 hours 23 minutes 43.6 seconds.
 Elapsed time:       0 days  0 hours  5 minutes 19.7 seconds.
 File lengths (MBytes):  RWF=    718 Int=      0 D2E=      0 Chk=    208 Scr=      1
 Normal termination of Gaussian 16 at Wed Sep 27 16:57:05 2023.
