 Entering Gaussian System, Link 0=g16
 Initial command:
 /home/center/opt/aarch64/apps/gaussian16/c01/g16/l1.exe "/data/tmp/Gtmp/1006954/Gau-51.inp" -scrdir="/data/tmp/Gtmp/1006954/"
 Entering Link 1 = /home/center/opt/aarch64/apps/gaussian16/c01/g16/l1.exe PID=        52.
  
 Copyright (c) 1988-2019, Gaussian, Inc.  All Rights Reserved.
  
 This is part of the Gaussian(R) 16 program.  It is based on
 the Gaussian(R) 09 system (copyright 2009, Gaussian, Inc.),
 the Gaussian(R) 03 system (copyright 2003, Gaussian, Inc.),
 the Gaussian(R) 98 system (copyright 1998, Gaussian, Inc.),
 the Gaussian(R) 94 system (copyright 1995, Gaussian, Inc.),
 the Gaussian 92(TM) system (copyright 1992, Gaussian, Inc.),
 the Gaussian 90(TM) system (copyright 1990, Gaussian, Inc.),
 the Gaussian 88(TM) system (copyright 1988, Gaussian, Inc.),
 the Gaussian 86(TM) system (copyright 1986, Carnegie Mellon
 University), and the Gaussian 82(TM) system (copyright 1983,
 Carnegie Mellon University). Gaussian is a federally registered
 trademark of Gaussian, Inc.
  
 This software contains proprietary and confidential information,
 including trade secrets, belonging to Gaussian, Inc.
  
 This software is provided under written license and may be
 used, copied, transmitted, or stored only in accord with that
 written license.
  
 The following legend is applicable only to US Government
 contracts under FAR:
  
                    RESTRICTED RIGHTS LEGEND
  
 Use, reproduction and disclosure by the US Government is
 subject to restrictions as set forth in subparagraphs (a)
 and (c) of the Commercial Computer Software - Restricted
 Rights clause in FAR 52.227-19.
  
 Gaussian, Inc.
 340 Quinnipiac St., Bldg. 40, Wallingford CT 06492
  
  
 ---------------------------------------------------------------
 Warning -- This program may not be used in any manner that
 competes with the business of Gaussian, Inc. or will provide
 assistance to any competitor of Gaussian, Inc.  The licensee
 of this program is prohibited from giving any competitor of
 Gaussian, Inc. access to this program.  By using this program,
 the user acknowledges that Gaussian, Inc. is engaged in the
 business of creating and licensing software in the field of
 computational chemistry and represents and warrants to the
 licensee that it is not a competitor of Gaussian, Inc. and that
 it will not use this program in any manner prohibited above.
 ---------------------------------------------------------------
  

 Cite this work as:
 Gaussian 16, Revision C.01,
 M. J. Frisch, G. W. Trucks, H. B. Schlegel, G. E. Scuseria, 
 M. A. Robb, J. R. Cheeseman, G. Scalmani, V. Barone, 
 G. A. Petersson, H. Nakatsuji, X. Li, M. Caricato, A. V. Marenich, 
 J. Bloino, B. G. Janesko, R. Gomperts, B. Mennucci, H. P. Hratchian, 
 J. V. Ortiz, A. F. Izmaylov, J. L. Sonnenberg, D. Williams-Young, 
 F. Ding, F. Lipparini, F. Egidi, J. Goings, B. Peng, A. Petrone, 
 T. Henderson, D. Ranasinghe, V. G. Zakrzewski, J. Gao, N. Rega, 
 G. Zheng, W. Liang, M. Hada, M. Ehara, K. Toyota, R. Fukuda, 
 J. Hasegawa, M. Ishida, T. Nakajima, Y. Honda, O. Kitao, H. Nakai, 
 T. Vreven, K. Throssell, J. A. Montgomery, Jr., J. E. Peralta, 
 F. Ogliaro, M. J. Bearpark, J. J. Heyd, E. N. Brothers, K. N. Kudin, 
 V. N. Staroverov, T. A. Keith, R. Kobayashi, J. Normand, 
 K. Raghavachari, A. P. Rendell, J. C. Burant, S. S. Iyengar, 
 J. Tomasi, M. Cossi, J. M. Millam, M. Klene, C. Adamo, R. Cammi, 
 J. W. Ochterski, R. L. Martin, K. Morokuma, O. Farkas, 
 J. B. Foresman, and D. J. Fox, Gaussian, Inc., Wallingford CT, 2019.
 
 ************************************************
 Gaussian 16:  Fujitsu-Arm-G16RevC.01  3-Jul-2019
                   27-Sep-2023 
 ************************************************
 %mem=24GB
 %nproc=42
 Will use up to   42 processors via shared memory.
 -------------------------------------------------------------
 #P TEST b3lyp/6-311G** EmpiricalDispersion=GD3 counterpoise=2
 -------------------------------------------------------------
 1/38=1,62=2,172=1/1;
 2/12=2,17=6,18=5,40=1/2;
 1/38=1,53=2,62=2,63=1/22;
 3/5=4,6=6,7=101,11=2,25=1,30=1,74=-5,124=31/1,2,3;
 4//1;
 5/5=2,38=5/2;
 6/7=2,8=2,9=2,10=2,28=1/1;
 1/53=2,62=2,63=1/22;
 3/5=7,6=11,7=101,11=2,25=1,30=1,74=-5,82=7,124=31/1,2,3;
 4//1;
 5/5=2,38=5/2;
 6/7=2,8=2,9=2,10=2,28=1/1;
 1/53=2,62=2,63=1/22(-4);
 99/5=1,9=1/99;
 Leave Link    1 at Wed Sep 27 16:37:44 2023, MaxMem=  3221225472 cpu:               4.5 elap:               0.2
 (Enter /home/center/opt/aarch64/apps/gaussian16/c01/g16/l101.exe)
 ----------------------------
 pentacene_A1=0_A2=0_A3=45_t1
 ----------------------------
 Symbolic Z-matrix:
 Charge =  0 Multiplicity = 1 in supermolecule
 Charge =  0 Multiplicity = 1 in fragment      1.
 Charge =  0 Multiplicity = 1 in fragment      2.
 C(Fragment=1)        -0.50395   0.52395  -3.66128 
 C(Fragment=1)         0.52395  -0.50395  -3.66128 
 C(Fragment=1)        -0.98612   1.00612  -4.92359 
 C(Fragment=1)         1.00613  -0.98613  -4.92359 
 C(Fragment=1)        -0.49632   0.51632  -6.09636 
 C(Fragment=1)         0.51632  -0.49632  -6.09636 
 C(Fragment=1)        -0.98447   1.00447  -2.45332 
 C(Fragment=1)        -0.50449   0.52449  -1.21403 
 C(Fragment=1)         1.00447  -0.98447  -2.45332 
 C(Fragment=1)         0.52449  -0.50449  -1.21403 
 H(Fragment=1)        -1.75336   1.77336  -4.92326 
 H(Fragment=1)        -1.75219   1.77219  -2.45393 
 H(Fragment=1)         1.77219  -1.75219  -2.45393 
 H(Fragment=1)         1.77336  -1.75336  -4.92326 
 H(Fragment=1)         0.89056  -0.87056  -7.04253 
 H(Fragment=1)        -0.87056   0.89056  -7.04253 
 C(Fragment=1)        -0.98482   1.00482   0.01 
 C(Fragment=1)        -0.50449   0.52449   1.23403 
 C(Fragment=1)         1.00482  -0.98482   0.01 
 C(Fragment=1)         0.52449  -0.50449   1.23403 
 H(Fragment=1)        -1.75247   1.77247   0.01 
 H(Fragment=1)         1.77247  -1.75247   0.01 
 C(Fragment=1)        -0.98447   1.00447   2.47332 
 C(Fragment=1)        -0.50395   0.52395   3.68128 
 C(Fragment=1)         1.00447  -0.98447   2.47332 
 C(Fragment=1)         0.52395  -0.50395   3.68128 
 H(Fragment=1)        -1.75219   1.77219   2.47393 
 H(Fragment=1)         1.77219  -1.75219   2.47393 
 C(Fragment=1)        -0.98612   1.00612   4.94359 
 C(Fragment=1)        -0.49632   0.51632   6.11636 
 C(Fragment=1)         1.00612  -0.98612   4.94359 
 C(Fragment=1)         0.51632  -0.49632   6.11636 
 H(Fragment=1)        -1.75336   1.77336   4.94326 
 H(Fragment=1)        -0.87056   0.89056   7.06253 
 H(Fragment=1)         0.89056  -0.87056   7.06253 
 H(Fragment=1)         1.77336  -1.75336   4.94326 
 C(Fragment=2)         4.02395   3.52395  -3.66128 
 C(Fragment=2)         2.99605   2.49605  -3.66128 
 C(Fragment=2)         4.50612   4.00612  -4.92359 
 C(Fragment=2)         2.51387   2.01387  -4.92359 
 C(Fragment=2)         4.01632   3.51632  -6.09636 
 C(Fragment=2)         3.00368   2.50368  -6.09636 
 C(Fragment=2)         4.50447   4.00447  -2.45332 
 C(Fragment=2)         4.02449   3.52449  -1.21403 
 C(Fragment=2)         2.51553   2.01553  -2.45332 
 C(Fragment=2)         2.99551   2.49551  -1.21403 
 H(Fragment=2)         5.27336   4.77336  -4.92326 
 H(Fragment=2)         5.27219   4.77219  -2.45393 
 H(Fragment=2)         1.74781   1.24781  -2.45393 
 H(Fragment=2)         1.74664   1.24664  -4.92326 
 H(Fragment=2)         2.62944   2.12944  -7.04253 
 H(Fragment=2)         4.39056   3.89056  -7.04253 
 C(Fragment=2)         4.50482   4.00482   0.01 
 C(Fragment=2)         4.02449   3.52449   1.23403 
 C(Fragment=2)         2.51518   2.01518   0.01 
 C(Fragment=2)         2.99551   2.49551   1.23403 
 H(Fragment=2)         5.27247   4.77247   0.01 
 H(Fragment=2)         1.74753   1.24753   0.01 
 C(Fragment=2)         4.50447   4.00447   2.47332 
 C(Fragment=2)         4.02395   3.52395   3.68128 
 C(Fragment=2)         2.51553   2.01553   2.47332 
 C(Fragment=2)         2.99605   2.49605   3.68128 
 H(Fragment=2)         5.27219   4.77219   2.47393 
 H(Fragment=2)         1.74781   1.24781   2.47393 
 C(Fragment=2)         4.50612   4.00612   4.94359 
 C(Fragment=2)         4.01632   3.51632   6.11636 
 C(Fragment=2)         2.51388   2.01388   4.94359 
 C(Fragment=2)         3.00368   2.50368   6.11636 
 H(Fragment=2)         5.27336   4.77336   4.94326 
 H(Fragment=2)         4.39056   3.89056   7.06253 
 H(Fragment=2)         2.62944   2.12944   7.06253 
 H(Fragment=2)         1.74664   1.24664   4.94326 
 
 ITRead=  0  0  0  0  0  0  0  0  0  0  0  0  0  0  0  0  0  0  0  0
 ITRead=  0  0  0  0  0  0  0  0  0  0  0  0  0  0  0  0  0  0  0  0
 ITRead=  0  0  0  0  0  0  0  0  0  0  0  0  0  0  0  0  0  0  0  0
 ITRead=  0  0  0  0  0  0  0  0  0  0  0  0
 MicOpt= -1 -1 -1 -1 -1 -1 -1 -1 -1 -1 -1 -1 -1 -1 -1 -1 -1 -1 -1 -1
 MicOpt= -1 -1 -1 -1 -1 -1 -1 -1 -1 -1 -1 -1 -1 -1 -1 -1 -1 -1 -1 -1
 MicOpt= -1 -1 -1 -1 -1 -1 -1 -1 -1 -1 -1 -1 -1 -1 -1 -1 -1 -1 -1 -1
 MicOpt= -1 -1 -1 -1 -1 -1 -1 -1 -1 -1 -1 -1
 NAtoms=     72 NQM=       72 NQMF=       0 NMMI=      0 NMMIF=      0
                NMic=       0 NMicF=      0.
                    Isotopes and Nuclear Properties:
 (Nuclear quadrupole moments (NQMom) in fm**2, nuclear magnetic moments (NMagM)
  in nuclear magnetons)

  Atom         1           2           3           4           5           6           7           8           9          10
 IAtWgt=          12          12          12          12          12          12          12          12          12          12
 AtmWgt=  12.0000000  12.0000000  12.0000000  12.0000000  12.0000000  12.0000000  12.0000000  12.0000000  12.0000000  12.0000000
 NucSpn=           0           0           0           0           0           0           0           0           0           0
 AtZEff=   0.0000000   0.0000000   0.0000000   0.0000000   0.0000000   0.0000000   0.0000000   0.0000000   0.0000000   0.0000000
 NQMom=    0.0000000   0.0000000   0.0000000   0.0000000   0.0000000   0.0000000   0.0000000   0.0000000   0.0000000   0.0000000
 NMagM=    0.0000000   0.0000000   0.0000000   0.0000000   0.0000000   0.0000000   0.0000000   0.0000000   0.0000000   0.0000000
 AtZNuc=   6.0000000   6.0000000   6.0000000   6.0000000   6.0000000   6.0000000   6.0000000   6.0000000   6.0000000   6.0000000

  Atom        11          12          13          14          15          16          17          18          19          20
 IAtWgt=           1           1           1           1           1           1          12          12          12          12
 AtmWgt=   1.0078250   1.0078250   1.0078250   1.0078250   1.0078250   1.0078250  12.0000000  12.0000000  12.0000000  12.0000000
 NucSpn=           1           1           1           1           1           1           0           0           0           0
 AtZEff=   0.0000000   0.0000000   0.0000000   0.0000000   0.0000000   0.0000000   0.0000000   0.0000000   0.0000000   0.0000000
 NQMom=    0.0000000   0.0000000   0.0000000   0.0000000   0.0000000   0.0000000   0.0000000   0.0000000   0.0000000   0.0000000
 NMagM=    2.7928460   2.7928460   2.7928460   2.7928460   2.7928460   2.7928460   0.0000000   0.0000000   0.0000000   0.0000000
 AtZNuc=   1.0000000   1.0000000   1.0000000   1.0000000   1.0000000   1.0000000   6.0000000   6.0000000   6.0000000   6.0000000

  Atom        21          22          23          24          25          26          27          28          29          30
 IAtWgt=           1           1          12          12          12          12           1           1          12          12
 AtmWgt=   1.0078250   1.0078250  12.0000000  12.0000000  12.0000000  12.0000000   1.0078250   1.0078250  12.0000000  12.0000000
 NucSpn=           1           1           0           0           0           0           1           1           0           0
 AtZEff=   0.0000000   0.0000000   0.0000000   0.0000000   0.0000000   0.0000000   0.0000000   0.0000000   0.0000000   0.0000000
 NQMom=    0.0000000   0.0000000   0.0000000   0.0000000   0.0000000   0.0000000   0.0000000   0.0000000   0.0000000   0.0000000
 NMagM=    2.7928460   2.7928460   0.0000000   0.0000000   0.0000000   0.0000000   2.7928460   2.7928460   0.0000000   0.0000000
 AtZNuc=   1.0000000   1.0000000   6.0000000   6.0000000   6.0000000   6.0000000   1.0000000   1.0000000   6.0000000   6.0000000

  Atom        31          32          33          34          35          36          37          38          39          40
 IAtWgt=          12          12           1           1           1           1          12          12          12          12
 AtmWgt=  12.0000000  12.0000000   1.0078250   1.0078250   1.0078250   1.0078250  12.0000000  12.0000000  12.0000000  12.0000000
 NucSpn=           0           0           1           1           1           1           0           0           0           0
 AtZEff=   0.0000000   0.0000000   0.0000000   0.0000000   0.0000000   0.0000000   0.0000000   0.0000000   0.0000000   0.0000000
 NQMom=    0.0000000   0.0000000   0.0000000   0.0000000   0.0000000   0.0000000   0.0000000   0.0000000   0.0000000   0.0000000
 NMagM=    0.0000000   0.0000000   2.7928460   2.7928460   2.7928460   2.7928460   0.0000000   0.0000000   0.0000000   0.0000000
 AtZNuc=   6.0000000   6.0000000   1.0000000   1.0000000   1.0000000   1.0000000   6.0000000   6.0000000   6.0000000   6.0000000

  Atom        41          42          43          44          45          46          47          48          49          50
 IAtWgt=          12          12          12          12          12          12           1           1           1           1
 AtmWgt=  12.0000000  12.0000000  12.0000000  12.0000000  12.0000000  12.0000000   1.0078250   1.0078250   1.0078250   1.0078250
 NucSpn=           0           0           0           0           0           0           1           1           1           1
 AtZEff=   0.0000000   0.0000000   0.0000000   0.0000000   0.0000000   0.0000000   0.0000000   0.0000000   0.0000000   0.0000000
 NQMom=    0.0000000   0.0000000   0.0000000   0.0000000   0.0000000   0.0000000   0.0000000   0.0000000   0.0000000   0.0000000
 NMagM=    0.0000000   0.0000000   0.0000000   0.0000000   0.0000000   0.0000000   2.7928460   2.7928460   2.7928460   2.7928460
 AtZNuc=   6.0000000   6.0000000   6.0000000   6.0000000   6.0000000   6.0000000   1.0000000   1.0000000   1.0000000   1.0000000

  Atom        51          52          53          54          55          56          57          58          59          60
 IAtWgt=           1           1          12          12          12          12           1           1          12          12
 AtmWgt=   1.0078250   1.0078250  12.0000000  12.0000000  12.0000000  12.0000000   1.0078250   1.0078250  12.0000000  12.0000000
 NucSpn=           1           1           0           0           0           0           1           1           0           0
 AtZEff=   0.0000000   0.0000000   0.0000000   0.0000000   0.0000000   0.0000000   0.0000000   0.0000000   0.0000000   0.0000000
 NQMom=    0.0000000   0.0000000   0.0000000   0.0000000   0.0000000   0.0000000   0.0000000   0.0000000   0.0000000   0.0000000
 NMagM=    2.7928460   2.7928460   0.0000000   0.0000000   0.0000000   0.0000000   2.7928460   2.7928460   0.0000000   0.0000000
 AtZNuc=   1.0000000   1.0000000   6.0000000   6.0000000   6.0000000   6.0000000   1.0000000   1.0000000   6.0000000   6.0000000

  Atom        61          62          63          64          65          66          67          68          69          70
 IAtWgt=          12          12           1           1          12          12          12          12           1           1
 AtmWgt=  12.0000000  12.0000000   1.0078250   1.0078250  12.0000000  12.0000000  12.0000000  12.0000000   1.0078250   1.0078250
 NucSpn=           0           0           1           1           0           0           0           0           1           1
 AtZEff=   0.0000000   0.0000000   0.0000000   0.0000000   0.0000000   0.0000000   0.0000000   0.0000000   0.0000000   0.0000000
 NQMom=    0.0000000   0.0000000   0.0000000   0.0000000   0.0000000   0.0000000   0.0000000   0.0000000   0.0000000   0.0000000
 NMagM=    0.0000000   0.0000000   2.7928460   2.7928460   0.0000000   0.0000000   0.0000000   0.0000000   2.7928460   2.7928460
 AtZNuc=   6.0000000   6.0000000   1.0000000   1.0000000   6.0000000   6.0000000   6.0000000   6.0000000   1.0000000   1.0000000

  Atom        71          72
 IAtWgt=           1           1
 AtmWgt=   1.0078250   1.0078250
 NucSpn=           1           1
 AtZEff=   0.0000000   0.0000000
 NQMom=    0.0000000   0.0000000
 NMagM=    2.7928460   2.7928460
 AtZNuc=   1.0000000   1.0000000
 Leave Link  101 at Wed Sep 27 16:37:46 2023, MaxMem=  3221225472 cpu:               5.0 elap:               0.2
 (Enter /home/center/opt/aarch64/apps/gaussian16/c01/g16/l202.exe)
 Stoichiometry    C44H28
 Framework group  CS[SG(C4H4),X(C40H24)]
 Deg. of freedom   109
 Full point group                 CS      NOp   2
 Largest Abelian subgroup         CS      NOp   2
 Largest concise Abelian subgroup CS      NOp   2
                         Standard orientation:                         
 ---------------------------------------------------------------------
 Center     Atomic      Atomic             Coordinates (Angstroms)
 Number     Number       Type             X           Y           Z
 ---------------------------------------------------------------------
      1          6           0        0.903609   -2.298097    3.671276
      2          6           0       -0.550056   -2.298097    3.671276
      3          6           0        1.585510   -2.298097    4.933593
      4          6           0       -1.231957   -2.298097    4.933593
      5          6           0        0.892823   -2.298097    6.106357
      6          6           0       -0.539270   -2.298097    6.106357
      7          6           0        1.583167   -2.298097    2.463318
      8          6           0        0.904373   -2.298097    1.224029
      9          6           0       -1.229614   -2.298097    2.463317
     10          6           0       -0.550820   -2.298097    1.224029
     11          1           0        2.670539   -2.298097    4.933260
     12          1           0        2.668885   -2.298097    2.463929
     13          1           0       -2.315330   -2.298097    2.463929
     14          1           0       -2.316985   -2.298097    4.933260
     15          1           0       -1.068519   -2.298097    7.052528
     16          1           0        1.422072   -2.298097    7.052528
     17          6           0        1.583663   -2.298097    0.000000
     18          6           0        0.904373   -2.298097   -1.224029
     19          6           0       -1.230109   -2.298097    0.000000
     20          6           0       -0.550820   -2.298097   -1.224029
     21          1           0        2.669286   -2.298097    0.000000
     22          1           0       -2.315731   -2.298097    0.000000
     23          6           0        1.583167   -2.298097   -2.463318
     24          6           0        0.903609   -2.298097   -3.671276
     25          6           0       -1.229614   -2.298097   -2.463317
     26          6           0       -0.550056   -2.298097   -3.671276
     27          1           0        2.668885   -2.298097   -2.463929
     28          1           0       -2.315330   -2.298097   -2.463929
     29          6           0        1.585510   -2.298097   -4.933593
     30          6           0        0.892823   -2.298097   -6.106357
     31          6           0       -1.231957   -2.298097   -4.933593
     32          6           0       -0.539270   -2.298097   -6.106357
     33          1           0        2.670539   -2.298097   -4.933260
     34          1           0        1.422072   -2.298097   -7.052528
     35          1           0       -1.068519   -2.298097   -7.052528
     36          1           0       -2.316985   -2.298097   -4.933260
     37          6           0       -0.176777    3.024929    3.671276
     38          6           0       -0.176777    1.571265    3.671276
     39          6           0       -0.176777    3.706830    4.933593
     40          6           0       -0.176777    0.889363    4.933593
     41          6           0       -0.176777    3.014144    6.106357
     42          6           0       -0.176777    1.582050    6.106357
     43          6           0       -0.176777    3.704488    2.463318
     44          6           0       -0.176777    3.025694    1.224029
     45          6           0       -0.176777    0.891706    2.463317
     46          6           0       -0.176777    1.570500    1.224029
     47          1           0       -0.176777    4.791859    4.933260
     48          1           0       -0.176777    4.790205    2.463929
     49          1           0       -0.176777   -0.194010    2.463929
     50          1           0       -0.176777   -0.195665    4.933260
     51          1           0       -0.176777    1.052802    7.052528
     52          1           0       -0.176777    3.543392    7.052528
     53          6           0       -0.176777    3.704983    0.000000
     54          6           0       -0.176777    3.025694   -1.224029
     55          6           0       -0.176777    0.891211    0.000000
     56          6           0       -0.176777    1.570500   -1.224029
     57          1           0       -0.176777    4.790606    0.000000
     58          1           0       -0.176777   -0.194410    0.000000
     59          6           0       -0.176777    3.704488   -2.463318
     60          6           0       -0.176777    3.024929   -3.671276
     61          6           0       -0.176777    0.891706   -2.463317
     62          6           0       -0.176777    1.571265   -3.671276
     63          1           0       -0.176777    4.790205   -2.463929
     64          1           0       -0.176777   -0.194010   -2.463929
     65          6           0       -0.176777    3.706830   -4.933593
     66          6           0       -0.176777    3.014144   -6.106357
     67          6           0       -0.176777    0.889363   -4.933593
     68          6           0       -0.176777    1.582050   -6.106357
     69          1           0       -0.176777    4.791859   -4.933260
     70          1           0       -0.176777    3.543392   -7.052528
     71          1           0       -0.176777    1.052802   -7.052528
     72          1           0       -0.176777   -0.195665   -4.933260
 ---------------------------------------------------------------------
 Rotational constants (GHZ):           0.1358970           0.0563744           0.0423990
 Leave Link  202 at Wed Sep 27 16:37:48 2023, MaxMem=  3221225472 cpu:               0.8 elap:               0.1
 (Enter /home/center/opt/aarch64/apps/gaussian16/c01/g16/l122.exe)
 Counterpoise: doing full-system calculation.
 Leave Link  122 at Wed Sep 27 16:37:51 2023, MaxMem=  3221225472 cpu:               0.4 elap:               0.0
 (Enter /home/center/opt/aarch64/apps/gaussian16/c01/g16/l301.exe)
 Standard basis: 6-311G(d,p) (5D, 7F)
 Ernie: Thresh=  0.10000D-02 Tol=  0.10000D-05 Strict=F.
 There are   528 symmetry adapted cartesian basis functions of A'  symmetry.
 There are   476 symmetry adapted cartesian basis functions of A"  symmetry.
 There are   504 symmetry adapted basis functions of A'  symmetry.
 There are   456 symmetry adapted basis functions of A"  symmetry.
   960 basis functions,  1632 primitive gaussians,  1004 cartesian basis functions
   146 alpha electrons      146 beta electrons
       nuclear repulsion energy      4792.1710351641 Hartrees.
 IExCor=  402 DFT=T Ex+Corr=B3LYP ExCW=0 ScaHFX=  0.200000
 ScaDFX=  0.800000  0.720000  1.000000  0.810000 ScalE2=  1.000000  1.000000
 IRadAn=      5 IRanWt=     -1 IRanGd=            0 ICorTp=0 IEmpDi=131
 NAtoms=   72 NActive=   72 NUniq=   40 SFac= 3.24D+00 NAtFMM=   60 NAOKFM=T Big=F
 Integral buffers will be    131072 words long.
 Raffenetti 2 integral format.
 Two-electron integral symmetry is turned on.
 R6Disp:  Grimme-D3 Dispersion energy=       -0.0956655872 Hartrees.
 Nuclear repulsion after empirical dispersion term =     4792.0753695769 Hartrees.
 Leave Link  301 at Wed Sep 27 16:37:53 2023, MaxMem=  3221225472 cpu:               2.0 elap:               0.1
 (Enter /home/center/opt/aarch64/apps/gaussian16/c01/g16/l302.exe)
 NPDir=0 NMtPBC=     1 NCelOv=     1 NCel=       1 NClECP=     1 NCelD=      1
         NCelK=      1 NCelE2=     1 NClLst=     1 CellRange=     0.0.
 One-electron integrals computed using PRISM.
 One-electron integral symmetry used in STVInt
 NBasis=   960 RedAO= T EigKep=  3.64D-05  NBF=   504   456
 NBsUse=   960 1.00D-06 EigRej= -1.00D+00 NBFU=   504   456
 Precomputing XC quadrature grid using
 IXCGrd= 4 IRadAn=           5 IRanWt=          -1 IRanGd=           0 AccXCQ= 0.00D+00.
 Generated NRdTot=       0 NPtTot=           0 NUsed=           0 NTot=          32
 NSgBfM=   991   991   991   991   991 MxSgAt=    72 MxSgA2=    72.
 Leave Link  302 at Wed Sep 27 16:37:57 2023, MaxMem=  3221225472 cpu:              64.9 elap:               2.0
 (Enter /home/center/opt/aarch64/apps/gaussian16/c01/g16/l303.exe)
 DipDrv:  MaxL=1.
 Leave Link  303 at Wed Sep 27 16:38:00 2023, MaxMem=  3221225472 cpu:              13.8 elap:               0.4
 (Enter /home/center/opt/aarch64/apps/gaussian16/c01/g16/l401.exe)
 ExpMin= 1.03D-01 ExpMax= 4.56D+03 ExpMxC= 6.82D+02 IAcc=3 IRadAn=         5 AccDes= 0.00D+00
 Harris functional with IExCor=  402 and IRadAn=       5 diagonalized for initial guess.
 HarFok:  IExCor=  402 AccDes= 0.00D+00 IRadAn=         5 IDoV= 1 UseB2=F ITyADJ=14
 ICtDFT=  3500011 ScaDFX=  1.000000  1.000000  1.000000  1.000000
 FoFCou: FMM=F IPFlag=           0 FMFlag=      100000 FMFlg1=        2000
         NFxFlg=           0 DoJE=T BraDBF=F KetDBF=T FulRan=T
         wScrn=  0.000000 ICntrl=       500 IOpCl=  0 I1Cent=   200000004 NGrid=           0
         NMat0=    1 NMatS0=      1 NMatT0=    0 NMatD0=    1 NMtDS0=    0 NMtDT0=    0
 Petite list used in FoFCou.
 Harris En= -1694.11815067582    
 JPrj=0 DoOrth=F DoCkMO=F.
 Initial guess orbital symmetries:
       Occupied  (A") (A') (A") (A') (A") (A') (A") (A') (A") (A')
                 (A") (A') (A") (A') (A") (A') (A") (A') (A') (A")
                 (A') (A") (A') (A') (A') (A") (A') (A') (A") (A')
                 (A") (A') (A") (A') (A") (A') (A") (A') (A") (A')
                 (A") (A') (A') (A") (A') (A') (A") (A") (A') (A')
                 (A") (A") (A') (A') (A') (A') (A") (A") (A') (A')
                 (A") (A") (A") (A") (A') (A') (A') (A') (A") (A")
                 (A") (A") (A') (A') (A") (A") (A') (A') (A') (A')
                 (A') (A') (A") (A") (A") (A") (A') (A") (A") (A')
                 (A') (A') (A") (A") (A') (A') (A') (A") (A') (A")
                 (A') (A') (A") (A") (A") (A") (A') (A') (A') (A')
                 (A") (A") (A') (A') (A") (A") (A") (A') (A') (A")
                 (A') (A") (A") (A') (A') (A") (A') (A") (A') (A')
                 (A") (A") (A') (A') (A") (A") (A') (A') (A') (A')
                 (A") (A") (A") (A") (A') (A')
       Virtual   (A') (A') (A") (A") (A") (A") (A') (A') (A') (A')
                 (A") (A") (A') (A') (A") (A") (A') (A") (A') (A')
                 (A') (A') (A") (A') (A") (A') (A") (A") (A') (A')
                 (A") (A") (A') (A") (A") (A") (A') (A') (A') (A')
                 (A') (A") (A') (A") (A") (A') (A") (A') (A') (A')
                 (A') (A") (A') (A") (A') (A') (A") (A") (A') (A")
                 (A') (A") (A") (A") (A') (A') (A") (A') (A") (A")
                 (A') (A") (A') (A') (A") (A') (A") (A") (A') (A')
                 (A') (A") (A') (A") (A") (A') (A") (A') (A') (A')
                 (A") (A') (A") (A') (A") (A") (A') (A") (A") (A')
                 (A') (A') (A') (A") (A") (A') (A') (A") (A") (A')
                 (A') (A") (A') (A") (A') (A') (A") (A') (A") (A')
                 (A") (A') (A") (A") (A') (A') (A") (A') (A") (A")
                 (A') (A') (A") (A') (A") (A") (A') (A') (A") (A')
                 (A') (A") (A") (A") (A') (A') (A') (A") (A') (A')
                 (A') (A") (A') (A") (A") (A") (A") (A') (A") (A')
                 (A') (A') (A") (A") (A') (A") (A') (A') (A') (A")
                 (A") (A') (A') (A') (A') (A") (A') (A") (A") (A")
                 (A') (A") (A') (A') (A") (A") (A') (A') (A") (A')
                 (A") (A') (A") (A') (A') (A") (A") (A') (A') (A")
                 (A") (A') (A') (A") (A') (A") (A") (A') (A") (A')
                 (A") (A') (A") (A') (A") (A') (A') (A") (A') (A")
                 (A') (A") (A") (A") (A') (A') (A') (A') (A') (A")
                 (A") (A') (A') (A") (A') (A") (A') (A") (A') (A")
                 (A') (A") (A") (A') (A') (A") (A") (A') (A') (A")
                 (A') (A') (A") (A") (A") (A') (A") (A') (A') (A")
                 (A") (A') (A") (A') (A") (A') (A") (A') (A") (A")
                 (A') (A") (A') (A') (A") (A') (A') (A") (A') (A')
                 (A") (A") (A") (A') (A") (A') (A") (A') (A") (A')
                 (A') (A") (A') (A") (A") (A') (A") (A') (A") (A')
                 (A') (A") (A') (A") (A') (A") (A") (A') (A') (A")
                 (A") (A') (A") (A') (A') (A") (A') (A') (A') (A")
                 (A") (A') (A') (A") (A") (A') (A") (A") (A") (A')
                 (A") (A') (A") (A') (A') (A') (A") (A') (A") (A')
                 (A") (A') (A') (A") (A") (A') (A') (A") (A") (A')
                 (A') (A") (A') (A') (A") (A') (A') (A') (A") (A')
                 (A") (A") (A") (A") (A") (A') (A") (A') (A') (A')
                 (A") (A') (A") (A') (A") (A") (A') (A") (A") (A')
                 (A') (A') (A') (A") (A') (A") (A') (A') (A") (A')
                 (A") (A') (A') (A") (A") (A') (A") (A') (A") (A')
                 (A") (A") (A') (A') (A') (A") (A") (A') (A") (A')
                 (A') (A') (A') (A") (A') (A") (A') (A") (A') (A")
                 (A') (A') (A") (A") (A') (A") (A') (A") (A") (A')
                 (A") (A') (A") (A') (A') (A") (A") (A') (A") (A')
                 (A") (A") (A') (A") (A') (A") (A') (A") (A') (A')
                 (A') (A') (A") (A") (A") (A") (A') (A") (A') (A")
                 (A') (A') (A") (A") (A') (A") (A') (A") (A') (A')
                 (A') (A") (A") (A') (A') (A") (A') (A") (A') (A")
                 (A') (A') (A") (A') (A") (A") (A") (A") (A") (A')
                 (A") (A') (A") (A") (A') (A") (A') (A') (A') (A")
                 (A') (A") (A') (A") (A') (A') (A") (A') (A") (A')
                 (A") (A") (A') (A") (A") (A') (A') (A") (A') (A")
                 (A') (A') (A") (A") (A') (A') (A") (A") (A') (A')
                 (A') (A") (A") (A") (A') (A") (A') (A") (A') (A')
                 (A") (A') (A") (A') (A') (A") (A") (A") (A') (A")
                 (A") (A') (A') (A") (A') (A") (A') (A") (A') (A')
                 (A") (A') (A') (A") (A") (A') (A") (A') (A") (A')
                 (A") (A") (A') (A") (A') (A") (A') (A') (A') (A")
                 (A") (A') (A') (A') (A") (A') (A') (A') (A") (A')
                 (A") (A") (A') (A') (A") (A") (A") (A') (A") (A')
                 (A") (A') (A") (A') (A') (A") (A') (A') (A") (A')
                 (A') (A") (A") (A') (A") (A') (A') (A") (A') (A")
                 (A') (A") (A") (A') (A") (A') (A") (A') (A") (A')
                 (A") (A') (A") (A') (A') (A') (A") (A') (A") (A")
                 (A') (A") (A') (A") (A') (A") (A') (A') (A") (A')
                 (A') (A") (A') (A') (A") (A") (A') (A') (A") (A")
                 (A') (A") (A") (A') (A') (A") (A') (A') (A') (A")
                 (A") (A') (A') (A") (A") (A") (A') (A") (A') (A")
                 (A') (A') (A') (A") (A') (A") (A") (A") (A') (A")
                 (A') (A") (A') (A') (A") (A') (A") (A') (A') (A")
                 (A") (A') (A") (A') (A") (A") (A') (A') (A") (A')
                 (A") (A') (A") (A') (A") (A') (A') (A') (A") (A")
                 (A') (A") (A") (A') (A') (A') (A") (A') (A") (A')
                 (A') (A") (A') (A") (A") (A') (A") (A') (A') (A")
                 (A') (A") (A') (A") (A') (A') (A") (A') (A') (A")
                 (A') (A') (A") (A") (A') (A") (A') (A') (A") (A")
                 (A") (A') (A") (A') (A") (A") (A') (A") (A') (A")
                 (A') (A') (A") (A") (A') (A') (A') (A") (A') (A")
                 (A") (A') (A") (A') (A") (A') (A') (A") (A') (A")
                 (A") (A') (A") (A") (A') (A') (A') (A") (A') (A")
                 (A') (A') (A") (A") (A') (A') (A") (A') (A") (A')
                 (A') (A") (A') (A")
 The electronic state of the initial guess is 1-A'.
 Leave Link  401 at Wed Sep 27 16:38:05 2023, MaxMem=  3221225472 cpu:             108.1 elap:               2.7
 (Enter /home/center/opt/aarch64/apps/gaussian16/c01/g16/l502.exe)
 Integral symmetry usage will be decided dynamically.
 Closed shell SCF:
 Using DIIS extrapolation, IDIIS=  1040.
 NGot=  3221225472 LenX=  3219153746 LenY=  3218144726
 Requested convergence on RMS density matrix=1.00D-08 within 128 cycles.
 Requested convergence on MAX density matrix=1.00D-06.
 Requested convergence on             energy=1.00D-06.
 No special actions if energy rises.
 Fock matrices will be formed incrementally for  20 cycles.
 Integral accuracy reduced to 1.0D-05 until final iterations.

 Cycle   1  Pass 0  IDiag  1:
 FoFJK:  IHMeth= 1 ICntrl=       0 DoSepK=F KAlg= 0 I1Cent=           0 FoldK=F
 IRaf= 580000000 NMat=       1 IRICut=       1 DoRegI=T DoRafI=F ISym2E= 1 IDoP0=0 IntGTp=1.
 FoFCou: FMM=F IPFlag=           0 FMFlag=      100000 FMFlg1=        2000
         NFxFlg=           0 DoJE=F BraDBF=F KetDBF=F FulRan=T
         wScrn=  0.000000 ICntrl=         0 IOpCl=  0 I1Cent=           0 NGrid=           0
         NMat0=    1 NMatS0=      1 NMatT0=    0 NMatD0=    1 NMtDS0=    0 NMtDT0=    0
 Petite list used in FoFCou.
 E= -1693.17525301969    
 DIIS: error= 4.47D-02 at cycle   1 NSaved=   1.
 NSaved= 1 IEnMin= 1 EnMin= -1693.17525301969     IErMin= 1 ErrMin= 4.47D-02
 ErrMax= 4.47D-02  0.00D+00 EMaxC= 1.00D-01 BMatC= 8.89D-01 BMatP= 8.89D-01
 IDIUse=3 WtCom= 5.53D-01 WtEn= 4.47D-01
 Coeff-Com:  0.100D+01
 Coeff-En:   0.100D+01
 Coeff:      0.100D+01
 Gap=     0.051 Goal=   None    Shift=    0.000
 GapD=    0.051 DampG=0.500 DampE=0.500 DampFc=0.2500 IDamp=-1.
 Damping current iteration by 2.50D-01
 RMSDP=1.75D-03 MaxDP=8.44D-02              OVMax= 1.60D-01

 Cycle   2  Pass 0  IDiag  1:
 RMSU=  4.23D-04    CP:  9.82D-01
 E= -1693.47802211363     Delta-E=       -0.302769093944 Rises=F Damp=T
 DIIS: error= 2.62D-02 at cycle   2 NSaved=   2.
 NSaved= 2 IEnMin= 2 EnMin= -1693.47802211363     IErMin= 2 ErrMin= 2.62D-02
 ErrMax= 2.62D-02  0.00D+00 EMaxC= 1.00D-01 BMatC= 2.99D-01 BMatP= 8.89D-01
 IDIUse=3 WtCom= 7.38D-01 WtEn= 2.62D-01
 Coeff-Com: -0.123D+01 0.223D+01
 Coeff-En:   0.000D+00 0.100D+01
 Coeff:     -0.906D+00 0.191D+01
 Gap=     0.051 Goal=   None    Shift=    0.000
 RMSDP=7.11D-04 MaxDP=3.45D-02 DE=-3.03D-01 OVMax= 1.48D-01

 Cycle   3  Pass 0  IDiag  1:
 RMSU=  4.54D-04    CP:  9.56D-01  2.24D+00
 E= -1694.03046407480     Delta-E=       -0.552441961168 Rises=F Damp=F
 DIIS: error= 7.11D-03 at cycle   3 NSaved=   3.
 NSaved= 3 IEnMin= 3 EnMin= -1694.03046407480     IErMin= 3 ErrMin= 7.11D-03
 ErrMax= 7.11D-03  0.00D+00 EMaxC= 1.00D-01 BMatC= 1.45D-02 BMatP= 2.99D-01
 IDIUse=3 WtCom= 9.29D-01 WtEn= 7.11D-02
 Coeff-Com: -0.309D+00 0.612D+00 0.696D+00
 Coeff-En:   0.000D+00 0.000D+00 0.100D+01
 Coeff:     -0.287D+00 0.569D+00 0.718D+00
 Gap=     0.061 Goal=   None    Shift=    0.000
 RMSDP=3.10D-04 MaxDP=2.00D-02 DE=-5.52D-01 OVMax= 1.76D-01

 Cycle   4  Pass 0  IDiag  1:
 RMSU=  2.64D-04    CP:  9.56D-01  2.17D+00  6.47D-01
 E= -1694.01909463699     Delta-E=        0.011369437811 Rises=F Damp=F
 DIIS: error= 1.19D-02 at cycle   4 NSaved=   4.
 NSaved= 4 IEnMin= 3 EnMin= -1694.03046407480     IErMin= 3 ErrMin= 7.11D-03
 ErrMax= 1.19D-02  0.00D+00 EMaxC= 1.00D-01 BMatC= 2.25D-02 BMatP= 1.45D-02
 IDIUse=2 WtCom= 0.00D+00 WtEn= 1.00D+00
 Coeff-En:   0.000D+00 0.000D+00 0.602D+00 0.398D+00
 Coeff:      0.000D+00 0.000D+00 0.602D+00 0.398D+00
 Gap=     0.055 Goal=   None    Shift=    0.000
 RMSDP=1.78D-04 MaxDP=1.31D-02 DE= 1.14D-02 OVMax= 1.28D-01

 Cycle   5  Pass 0  IDiag  1:
 RMSU=  8.71D-05    CP:  9.56D-01  2.15D+00  7.70D-01  4.53D-01
 E= -1694.04564704028     Delta-E=       -0.026552403290 Rises=F Damp=F
 DIIS: error= 1.85D-03 at cycle   5 NSaved=   5.
 NSaved= 5 IEnMin= 5 EnMin= -1694.04564704028     IErMin= 5 ErrMin= 1.85D-03
 ErrMax= 1.85D-03  0.00D+00 EMaxC= 1.00D-01 BMatC= 1.12D-03 BMatP= 1.45D-02
 IDIUse=3 WtCom= 9.81D-01 WtEn= 1.85D-02
 Coeff-Com: -0.161D-01 0.369D-01 0.283D+00 0.206D+00 0.490D+00
 Coeff-En:   0.000D+00 0.000D+00 0.000D+00 0.000D+00 0.100D+01
 Coeff:     -0.158D-01 0.363D-01 0.278D+00 0.202D+00 0.499D+00
 Gap=     0.056 Goal=   None    Shift=    0.000
 RMSDP=5.17D-05 MaxDP=3.69D-03 DE=-2.66D-02 OVMax= 2.69D-02

 Cycle   6  Pass 0  IDiag  1:
 RMSU=  3.59D-05    CP:  9.56D-01  2.17D+00  7.88D-01  4.78D-01  6.08D-01
 E= -1694.04634602330     Delta-E=       -0.000698983027 Rises=F Damp=F
 DIIS: error= 1.24D-03 at cycle   6 NSaved=   6.
 NSaved= 6 IEnMin= 6 EnMin= -1694.04634602330     IErMin= 6 ErrMin= 1.24D-03
 ErrMax= 1.24D-03  0.00D+00 EMaxC= 1.00D-01 BMatC= 3.85D-04 BMatP= 1.12D-03
 IDIUse=3 WtCom= 9.88D-01 WtEn= 1.24D-02
 Coeff-Com: -0.381D-02 0.644D-02 0.124D+00 0.908D-01 0.379D+00 0.404D+00
 Coeff-En:   0.000D+00 0.000D+00 0.000D+00 0.000D+00 0.315D+00 0.685D+00
 Coeff:     -0.376D-02 0.636D-02 0.122D+00 0.897D-01 0.378D+00 0.407D+00
 Gap=     0.055 Goal=   None    Shift=    0.000
 RMSDP=2.68D-05 MaxDP=1.65D-03 DE=-6.99D-04 OVMax= 1.15D-02

 Cycle   7  Pass 0  IDiag  1:
 RMSU=  9.42D-06    CP:  9.56D-01  2.17D+00  7.93D-01  4.62D-01  6.62D-01
                    CP:  3.28D-01
 E= -1694.04680724993     Delta-E=       -0.000461226621 Rises=F Damp=F
 DIIS: error= 3.35D-04 at cycle   7 NSaved=   7.
 NSaved= 7 IEnMin= 7 EnMin= -1694.04680724993     IErMin= 7 ErrMin= 3.35D-04
 ErrMax= 3.35D-04  0.00D+00 EMaxC= 1.00D-01 BMatC= 2.05D-05 BMatP= 3.85D-04
 IDIUse=3 WtCom= 9.97D-01 WtEn= 3.35D-03
 Coeff-Com: -0.317D-03-0.118D-04 0.584D-01 0.422D-01 0.203D+00 0.262D+00
 Coeff-Com:  0.434D+00
 Coeff-En:   0.000D+00 0.000D+00 0.000D+00 0.000D+00 0.000D+00 0.000D+00
 Coeff-En:   0.100D+01
 Coeff:     -0.316D-03-0.118D-04 0.582D-01 0.421D-01 0.202D+00 0.261D+00
 Coeff:      0.436D+00
 Gap=     0.055 Goal=   None    Shift=    0.000
 RMSDP=5.94D-06 MaxDP=2.31D-04 DE=-4.61D-04 OVMax= 1.57D-03

 Initial convergence to 1.0D-05 achieved.  Increase integral accuracy.
 Cycle   8  Pass 1  IDiag  1:
 E= -1694.04651932906     Delta-E=        0.000287920867 Rises=F Damp=F
 DIIS: error= 8.19D-04 at cycle   1 NSaved=   1.
 NSaved= 1 IEnMin= 1 EnMin= -1694.04651932906     IErMin= 1 ErrMin= 8.19D-04
 ErrMax= 8.19D-04  0.00D+00 EMaxC= 1.00D-01 BMatC= 4.54D-05 BMatP= 4.54D-05
 IDIUse=3 WtCom= 9.92D-01 WtEn= 8.19D-03
 Coeff-Com:  0.100D+01
 Coeff-En:   0.100D+01
 Coeff:      0.100D+01
 Gap=     0.055 Goal=   None    Shift=    0.000
 RMSDP=5.94D-06 MaxDP=2.31D-04 DE= 2.88D-04 OVMax= 1.78D-03

 Cycle   9  Pass 1  IDiag  1:
 RMSU=  2.96D-04    CP:  1.00D+00
 E= -1694.04655575687     Delta-E=       -0.000036427816 Rises=F Damp=F
 DIIS: error= 1.39D-04 at cycle   2 NSaved=   2.
 NSaved= 2 IEnMin= 2 EnMin= -1694.04655575687     IErMin= 2 ErrMin= 1.39D-04
 ErrMax= 1.39D-04  0.00D+00 EMaxC= 1.00D-01 BMatC= 4.77D-06 BMatP= 4.54D-05
 IDIUse=3 WtCom= 9.99D-01 WtEn= 1.39D-03
 Coeff-Com:  0.122D+00 0.878D+00
 Coeff-En:   0.000D+00 0.100D+01
 Coeff:      0.122D+00 0.878D+00
 Gap=     0.055 Goal=   None    Shift=    0.000
 RMSDP=8.15D-06 MaxDP=5.77D-04 DE=-3.64D-05 OVMax= 4.53D-03

 Cycle  10  Pass 1  IDiag  1:
 RMSU=  7.71D-06    CP:  1.00D+00  1.01D+00
 E= -1694.04653591230     Delta-E=        0.000019844579 Rises=F Damp=F
 DIIS: error= 3.43D-04 at cycle   3 NSaved=   3.
 NSaved= 3 IEnMin= 2 EnMin= -1694.04655575687     IErMin= 2 ErrMin= 1.39D-04
 ErrMax= 3.43D-04  0.00D+00 EMaxC= 1.00D-01 BMatC= 2.08D-05 BMatP= 4.77D-06
 IDIUse=3 WtCom= 3.51D-01 WtEn= 6.49D-01
 Coeff-Com:  0.131D-02 0.678D+00 0.320D+00
 Coeff-En:   0.000D+00 0.755D+00 0.245D+00
 Coeff:      0.458D-03 0.728D+00 0.271D+00
 Gap=     0.055 Goal=   None    Shift=    0.000
 RMSDP=4.81D-06 MaxDP=3.47D-04 DE= 1.98D-05 OVMax= 2.99D-03

 Cycle  11  Pass 1  IDiag  1:
 RMSU=  1.19D-06    CP:  1.00D+00  1.01D+00  3.99D-01
 E= -1694.04656047110     Delta-E=       -0.000024558806 Rises=F Damp=F
 DIIS: error= 3.52D-05 at cycle   4 NSaved=   4.
 NSaved= 4 IEnMin= 4 EnMin= -1694.04656047110     IErMin= 4 ErrMin= 3.52D-05
 ErrMax= 3.52D-05  0.00D+00 EMaxC= 1.00D-01 BMatC= 7.80D-07 BMatP= 4.77D-06
 IDIUse=1 WtCom= 1.00D+00 WtEn= 0.00D+00
 Coeff-Com: -0.368D-02 0.448D+00 0.153D+00 0.402D+00
 Coeff:     -0.368D-02 0.448D+00 0.153D+00 0.402D+00
 Gap=     0.055 Goal=   None    Shift=    0.000
 RMSDP=8.75D-07 MaxDP=4.53D-05 DE=-2.46D-05 OVMax= 2.34D-04

 Cycle  12  Pass 1  IDiag  1:
 RMSU=  4.10D-07    CP:  1.00D+00  1.01D+00  3.19D-01  6.19D-01
 E= -1694.04656127302     Delta-E=       -0.000000801921 Rises=F Damp=F
 DIIS: error= 6.74D-06 at cycle   5 NSaved=   5.
 NSaved= 5 IEnMin= 5 EnMin= -1694.04656127302     IErMin= 5 ErrMin= 6.74D-06
 ErrMax= 6.74D-06  0.00D+00 EMaxC= 1.00D-01 BMatC= 6.95D-09 BMatP= 7.80D-07
 IDIUse=1 WtCom= 1.00D+00 WtEn= 0.00D+00
 Coeff-Com: -0.232D-02 0.267D+00 0.900D-01 0.250D+00 0.395D+00
 Coeff:     -0.232D-02 0.267D+00 0.900D-01 0.250D+00 0.395D+00
 Gap=     0.055 Goal=   None    Shift=    0.000
 RMSDP=1.08D-07 MaxDP=7.01D-06 DE=-8.02D-07 OVMax= 5.94D-05

 Cycle  13  Pass 1  IDiag  1:
 RMSU=  9.75D-08    CP:  1.00D+00  1.01D+00  3.19D-01  6.37D-01  9.03D-01
 E= -1694.04656128070     Delta-E=       -0.000000007679 Rises=F Damp=F
 DIIS: error= 1.77D-06 at cycle   6 NSaved=   6.
 NSaved= 6 IEnMin= 6 EnMin= -1694.04656128070     IErMin= 6 ErrMin= 1.77D-06
 ErrMax= 1.77D-06  0.00D+00 EMaxC= 1.00D-01 BMatC= 6.56D-10 BMatP= 6.95D-09
 IDIUse=1 WtCom= 1.00D+00 WtEn= 0.00D+00
 Coeff-Com: -0.864D-03 0.964D-01 0.319D-01 0.937D-01 0.246D+00 0.533D+00
 Coeff:     -0.864D-03 0.964D-01 0.319D-01 0.937D-01 0.246D+00 0.533D+00
 Gap=     0.055 Goal=   None    Shift=    0.000
 RMSDP=4.02D-08 MaxDP=3.22D-06 DE=-7.68D-09 OVMax= 2.72D-05

 Cycle  14  Pass 1  IDiag  1:
 RMSU=  3.19D-08    CP:  1.00D+00  1.01D+00  3.19D-01  6.31D-01  9.23D-01
                    CP:  7.76D-01
 E= -1694.04656128133     Delta-E=       -0.000000000630 Rises=F Damp=F
 DIIS: error= 1.04D-06 at cycle   7 NSaved=   7.
 NSaved= 7 IEnMin= 7 EnMin= -1694.04656128133     IErMin= 7 ErrMin= 1.04D-06
 ErrMax= 1.04D-06  0.00D+00 EMaxC= 1.00D-01 BMatC= 1.51D-10 BMatP= 6.56D-10
 IDIUse=1 WtCom= 1.00D+00 WtEn= 0.00D+00
 Coeff-Com: -0.409D-03 0.447D-01 0.144D-01 0.446D-01 0.132D+00 0.377D+00
 Coeff-Com:  0.388D+00
 Coeff:     -0.409D-03 0.447D-01 0.144D-01 0.446D-01 0.132D+00 0.377D+00
 Coeff:      0.388D+00
 Gap=     0.055 Goal=   None    Shift=    0.000
 RMSDP=1.74D-08 MaxDP=9.69D-07 DE=-6.30D-10 OVMax= 1.03D-05

 Cycle  15  Pass 1  IDiag  1:
 RMSU=  1.01D-08    CP:  1.00D+00  1.01D+00  3.19D-01  6.33D-01  9.28D-01
                    CP:  8.18D-01  5.97D-01
 E= -1694.04656128151     Delta-E=       -0.000000000176 Rises=F Damp=F
 DIIS: error= 2.14D-07 at cycle   8 NSaved=   8.
 NSaved= 8 IEnMin= 8 EnMin= -1694.04656128151     IErMin= 8 ErrMin= 2.14D-07
 ErrMax= 2.14D-07  0.00D+00 EMaxC= 1.00D-01 BMatC= 1.70D-11 BMatP= 1.51D-10
 IDIUse=1 WtCom= 1.00D+00 WtEn= 0.00D+00
 Coeff-Com:  0.185D-04-0.271D-02-0.148D-02-0.815D-03 0.939D-02 0.109D+00
 Coeff-Com:  0.242D+00 0.645D+00
 Coeff:      0.185D-04-0.271D-02-0.148D-02-0.815D-03 0.939D-02 0.109D+00
 Coeff:      0.242D+00 0.645D+00
 Gap=     0.055 Goal=   None    Shift=    0.000
 RMSDP=6.42D-09 MaxDP=3.28D-07 DE=-1.76D-10 OVMax= 3.27D-06

 SCF Done:  E(RB3LYP) =  -1694.04656128     A.U. after   15 cycles
            NFock= 15  Conv=0.64D-08     -V/T= 2.0043
 KE= 1.686855889911D+03 PE=-1.351489449830D+04 EE= 5.341916677530D+03
 Leave Link  502 at Wed Sep 27 16:40:02 2023, MaxMem=  3221225472 cpu:            4189.3 elap:             115.3
 (Enter /home/center/opt/aarch64/apps/gaussian16/c01/g16/l601.exe)
 Copying SCF densities to generalized density rwf, IOpCl= 0 IROHF=0.

 **********************************************************************

            Population analysis using the SCF Density.

 **********************************************************************

 Orbital symmetries:
       Occupied  (A') (A") (A') (A") (A") (A') (A') (A") (A') (A')
                 (A") (A') (A") (A') (A") (A') (A") (A') (A') (A")
                 (A") (A') (A") (A') (A") (A') (A') (A") (A') (A")
                 (A") (A') (A") (A') (A') (A") (A') (A") (A') (A')
                 (A") (A') (A") (A') (A') (A") (A') (A') (A") (A')
                 (A") (A") (A') (A') (A") (A') (A') (A') (A") (A")
                 (A') (A") (A") (A") (A') (A') (A') (A') (A") (A")
                 (A') (A") (A") (A") (A') (A') (A') (A") (A') (A')
                 (A') (A") (A") (A') (A") (A") (A') (A") (A') (A')
                 (A") (A') (A") (A") (A') (A') (A") (A') (A") (A')
                 (A") (A') (A') (A') (A') (A") (A") (A") (A') (A')
                 (A') (A') (A") (A") (A") (A") (A") (A') (A') (A")
                 (A') (A') (A") (A') (A") (A') (A') (A") (A') (A")
                 (A") (A") (A') (A") (A') (A') (A") (A') (A') (A")
                 (A') (A") (A") (A") (A') (A')
       Virtual   (A') (A') (A") (A") (A") (A") (A') (A') (A") (A')
                 (A') (A') (A") (A') (A') (A") (A') (A') (A") (A')
                 (A") (A') (A") (A") (A') (A") (A') (A") (A") (A')
                 (A") (A') (A") (A') (A') (A") (A") (A') (A') (A')
                 (A") (A') (A') (A") (A') (A") (A') (A") (A") (A')
                 (A") (A') (A') (A') (A') (A") (A') (A") (A') (A")
                 (A') (A") (A') (A") (A") (A") (A') (A") (A') (A")
                 (A') (A') (A") (A') (A') (A") (A") (A') (A') (A")
                 (A") (A') (A') (A") (A') (A') (A") (A') (A") (A')
                 (A") (A') (A") (A") (A') (A') (A') (A") (A") (A')
                 (A') (A') (A") (A') (A") (A") (A") (A') (A") (A")
                 (A') (A') (A') (A") (A') (A") (A') (A') (A") (A")
                 (A') (A') (A") (A') (A") (A') (A') (A") (A') (A")
                 (A') (A") (A') (A') (A') (A') (A") (A") (A") (A')
                 (A') (A") (A") (A') (A") (A') (A") (A') (A') (A")
                 (A') (A") (A") (A") (A') (A") (A') (A') (A') (A")
                 (A') (A") (A') (A") (A') (A') (A') (A") (A") (A")
                 (A') (A') (A") (A') (A') (A") (A") (A") (A') (A')
                 (A") (A") (A') (A') (A") (A") (A') (A") (A") (A')
                 (A') (A") (A') (A') (A") (A') (A") (A') (A") (A')
                 (A") (A') (A') (A") (A') (A") (A') (A") (A') (A")
                 (A') (A") (A") (A') (A') (A") (A') (A") (A') (A")
                 (A') (A") (A") (A') (A') (A") (A') (A") (A') (A')
                 (A") (A') (A') (A") (A') (A") (A") (A') (A') (A")
                 (A') (A") (A") (A') (A') (A") (A") (A') (A') (A")
                 (A') (A") (A') (A") (A") (A') (A") (A') (A') (A")
                 (A') (A") (A') (A") (A") (A') (A") (A') (A") (A')
                 (A') (A") (A') (A") (A') (A") (A') (A") (A') (A")
                 (A") (A') (A") (A') (A') (A") (A') (A") (A') (A")
                 (A') (A') (A") (A") (A') (A") (A') (A') (A") (A")
                 (A') (A") (A') (A') (A") (A") (A') (A") (A') (A')
                 (A") (A") (A') (A") (A') (A') (A") (A') (A") (A")
                 (A') (A') (A') (A") (A") (A") (A') (A") (A') (A")
                 (A") (A') (A") (A') (A') (A") (A') (A') (A") (A')
                 (A") (A') (A') (A") (A") (A') (A') (A") (A') (A')
                 (A') (A") (A") (A') (A") (A') (A') (A") (A') (A")
                 (A') (A") (A') (A') (A") (A') (A") (A") (A") (A')
                 (A') (A") (A") (A') (A") (A") (A") (A') (A") (A')
                 (A') (A") (A') (A') (A') (A') (A") (A') (A") (A')
                 (A") (A') (A') (A") (A") (A") (A') (A') (A") (A')
                 (A") (A') (A') (A") (A") (A") (A') (A') (A") (A')
                 (A') (A') (A') (A") (A') (A") (A') (A") (A') (A")
                 (A") (A') (A') (A") (A") (A') (A') (A") (A") (A')
                 (A") (A') (A') (A") (A") (A') (A") (A') (A") (A")
                 (A') (A") (A') (A") (A') (A') (A") (A") (A') (A')
                 (A") (A') (A") (A') (A") (A') (A") (A') (A") (A')
                 (A") (A') (A") (A') (A") (A') (A') (A") (A") (A')
                 (A') (A") (A") (A') (A') (A") (A') (A") (A') (A")
                 (A') (A") (A') (A') (A") (A") (A") (A") (A") (A')
                 (A") (A") (A') (A") (A') (A') (A") (A') (A') (A")
                 (A") (A') (A') (A") (A') (A") (A') (A") (A') (A')
                 (A") (A") (A') (A") (A') (A') (A") (A') (A") (A')
                 (A') (A") (A') (A") (A") (A') (A") (A") (A') (A")
                 (A') (A") (A') (A") (A') (A") (A") (A') (A') (A')
                 (A') (A") (A") (A") (A') (A') (A") (A") (A') (A")
                 (A') (A") (A") (A') (A') (A") (A') (A") (A') (A')
                 (A") (A') (A') (A") (A") (A") (A') (A') (A") (A')
                 (A") (A') (A') (A") (A") (A') (A') (A') (A') (A")
                 (A") (A') (A") (A') (A") (A') (A") (A") (A') (A")
                 (A') (A") (A') (A") (A') (A") (A') (A') (A') (A")
                 (A') (A") (A') (A') (A") (A') (A") (A') (A") (A')
                 (A") (A") (A') (A') (A") (A') (A') (A") (A') (A')
                 (A') (A") (A') (A") (A") (A') (A") (A') (A") (A")
                 (A") (A') (A") (A') (A") (A') (A') (A') (A") (A")
                 (A') (A') (A") (A') (A") (A') (A') (A") (A') (A')
                 (A") (A") (A') (A') (A") (A") (A') (A") (A') (A")
                 (A') (A') (A") (A") (A') (A') (A") (A') (A") (A')
                 (A") (A') (A') (A") (A") (A') (A") (A') (A") (A')
                 (A') (A') (A") (A") (A') (A") (A") (A") (A') (A")
                 (A') (A') (A") (A') (A") (A') (A') (A") (A') (A")
                 (A") (A') (A") (A') (A") (A') (A') (A") (A") (A')
                 (A") (A") (A') (A') (A") (A') (A') (A") (A') (A")
                 (A') (A") (A') (A') (A") (A') (A") (A') (A") (A')
                 (A') (A") (A') (A") (A') (A") (A') (A") (A") (A')
                 (A') (A") (A') (A") (A') (A') (A') (A") (A') (A")
                 (A') (A") (A') (A") (A') (A") (A') (A') (A") (A")
                 (A") (A') (A") (A") (A') (A') (A") (A") (A') (A")
                 (A') (A') (A") (A") (A') (A') (A') (A') (A") (A")
                 (A") (A') (A") (A") (A') (A') (A') (A") (A') (A")
                 (A') (A") (A") (A") (A') (A') (A") (A') (A') (A')
                 (A") (A") (A') (A') (A") (A') (A") (A') (A") (A')
                 (A') (A") (A') (A")
 The electronic state is 1-A'.
 Alpha  occ. eigenvalues --  -10.20039 -10.20039 -10.20000 -10.19999 -10.19894
 Alpha  occ. eigenvalues --  -10.19893 -10.19855 -10.19855 -10.19097 -10.19096
 Alpha  occ. eigenvalues --  -10.19017 -10.19017 -10.19016 -10.19016 -10.18794
 Alpha  occ. eigenvalues --  -10.18794 -10.18785 -10.18785 -10.18711 -10.18711
 Alpha  occ. eigenvalues --  -10.18674 -10.18674 -10.17555 -10.17555 -10.17526
 Alpha  occ. eigenvalues --  -10.17525 -10.17423 -10.17423 -10.17327 -10.17327
 Alpha  occ. eigenvalues --  -10.16731 -10.16731 -10.16622 -10.16622 -10.16536
 Alpha  occ. eigenvalues --  -10.16536 -10.16524 -10.16463 -10.16463 -10.16316
 Alpha  occ. eigenvalues --  -10.16263 -10.16262 -10.16147 -10.16147  -0.90620
 Alpha  occ. eigenvalues --   -0.89082  -0.87951  -0.86733  -0.86507  -0.84211
 Alpha  occ. eigenvalues --   -0.83572  -0.81089  -0.80929  -0.79655  -0.79369
 Alpha  occ. eigenvalues --   -0.78426  -0.77203  -0.77025  -0.76947  -0.75362
 Alpha  occ. eigenvalues --   -0.74640  -0.73928  -0.72929  -0.71558  -0.70246
 Alpha  occ. eigenvalues --   -0.68477  -0.67818  -0.66011  -0.63753  -0.63400
 Alpha  occ. eigenvalues --   -0.62162  -0.61391  -0.61077  -0.60966  -0.60283
 Alpha  occ. eigenvalues --   -0.59808  -0.58673  -0.58670  -0.58014  -0.56380
 Alpha  occ. eigenvalues --   -0.53752  -0.53603  -0.53254  -0.51446  -0.51290
 Alpha  occ. eigenvalues --   -0.50998  -0.50636  -0.49527  -0.48376  -0.48077
 Alpha  occ. eigenvalues --   -0.47262  -0.47081  -0.46508  -0.46488  -0.46222
 Alpha  occ. eigenvalues --   -0.45980  -0.45237  -0.44920  -0.44157  -0.44119
 Alpha  occ. eigenvalues --   -0.43496  -0.42794  -0.42660  -0.42532  -0.42454
 Alpha  occ. eigenvalues --   -0.41771  -0.41607  -0.41373  -0.41164  -0.40599
 Alpha  occ. eigenvalues --   -0.40307  -0.40084  -0.40013  -0.39321  -0.39139
 Alpha  occ. eigenvalues --   -0.38961  -0.38308  -0.37521  -0.37273  -0.37181
 Alpha  occ. eigenvalues --   -0.36483  -0.35483  -0.35119  -0.35077  -0.34731
 Alpha  occ. eigenvalues --   -0.34032  -0.33544  -0.33177  -0.33116  -0.32742
 Alpha  occ. eigenvalues --   -0.32206  -0.31692  -0.30927  -0.30623  -0.30077
 Alpha  occ. eigenvalues --   -0.29308  -0.28176  -0.27812  -0.27176  -0.25722
 Alpha  occ. eigenvalues --   -0.25154  -0.23806  -0.23101  -0.21120  -0.19134
 Alpha  occ. eigenvalues --   -0.16375
 Alpha virt. eigenvalues --   -0.10847  -0.08410  -0.05602  -0.03994  -0.03152
 Alpha virt. eigenvalues --   -0.01438  -0.01336   0.00915   0.01089   0.01164
 Alpha virt. eigenvalues --    0.01760   0.03369   0.03617   0.03826   0.03923
 Alpha virt. eigenvalues --    0.03937   0.05017   0.05763   0.05811   0.06158
 Alpha virt. eigenvalues --    0.06160   0.07162   0.07163   0.07280   0.07733
 Alpha virt. eigenvalues --    0.08663   0.08688   0.09457   0.09701   0.10297
 Alpha virt. eigenvalues --    0.10474   0.11028   0.11987   0.12381   0.13024
 Alpha virt. eigenvalues --    0.13275   0.13660   0.13917   0.14443   0.15393
 Alpha virt. eigenvalues --    0.15475   0.16692   0.16870   0.16957   0.17657
 Alpha virt. eigenvalues --    0.18001   0.18038   0.18427   0.19258   0.20451
 Alpha virt. eigenvalues --    0.20453   0.21142   0.21823   0.21985   0.23423
 Alpha virt. eigenvalues --    0.24060   0.24333   0.24699   0.24763   0.25430
 Alpha virt. eigenvalues --    0.25445   0.26404   0.26517   0.26539   0.26687
 Alpha virt. eigenvalues --    0.27020   0.27321   0.28335   0.28584   0.28608
 Alpha virt. eigenvalues --    0.29026   0.29312   0.29646   0.30017   0.30063
 Alpha virt. eigenvalues --    0.30225   0.30683   0.31111   0.32019   0.32113
 Alpha virt. eigenvalues --    0.33338   0.33459   0.33692   0.33869   0.34050
 Alpha virt. eigenvalues --    0.34461   0.34765   0.35241   0.35581   0.35817
 Alpha virt. eigenvalues --    0.35933   0.35939   0.36834   0.37277   0.37537
 Alpha virt. eigenvalues --    0.37793   0.38171   0.38876   0.39124   0.39188
 Alpha virt. eigenvalues --    0.39275   0.39460   0.39598   0.39959   0.40150
 Alpha virt. eigenvalues --    0.40373   0.40519   0.40725   0.40788   0.41189
 Alpha virt. eigenvalues --    0.41397   0.42124   0.42369   0.42443   0.42614
 Alpha virt. eigenvalues --    0.42700   0.43335   0.43483   0.43684   0.44364
 Alpha virt. eigenvalues --    0.44423   0.44744   0.44877   0.44916   0.45090
 Alpha virt. eigenvalues --    0.45356   0.45486   0.45619   0.45649   0.45810
 Alpha virt. eigenvalues --    0.46061   0.46244   0.46420   0.46550   0.46660
 Alpha virt. eigenvalues --    0.47285   0.47483   0.47634   0.47897   0.48963
 Alpha virt. eigenvalues --    0.49094   0.50112   0.50288   0.50538   0.50638
 Alpha virt. eigenvalues --    0.50862   0.50872   0.51118   0.51378   0.51542
 Alpha virt. eigenvalues --    0.52569   0.52622   0.52908   0.53581   0.53604
 Alpha virt. eigenvalues --    0.53979   0.54977   0.55385   0.55760   0.56515
 Alpha virt. eigenvalues --    0.56819   0.57005   0.57207   0.57613   0.58118
 Alpha virt. eigenvalues --    0.58420   0.58609   0.58688   0.59583   0.59681
 Alpha virt. eigenvalues --    0.59928   0.60196   0.60556   0.60694   0.61229
 Alpha virt. eigenvalues --    0.61317   0.61833   0.62126   0.62651   0.62871
 Alpha virt. eigenvalues --    0.62922   0.63593   0.63617   0.63864   0.64054
 Alpha virt. eigenvalues --    0.64137   0.64498   0.64607   0.64881   0.65008
 Alpha virt. eigenvalues --    0.65546   0.65752   0.66075   0.66904   0.67104
 Alpha virt. eigenvalues --    0.67617   0.68332   0.69287   0.69641   0.70138
 Alpha virt. eigenvalues --    0.70437   0.70509   0.70906   0.71393   0.71571
 Alpha virt. eigenvalues --    0.72191   0.72391   0.73012   0.73531   0.73703
 Alpha virt. eigenvalues --    0.73948   0.74919   0.75206   0.75260   0.75819
 Alpha virt. eigenvalues --    0.76519   0.76842   0.77161   0.77540   0.78344
 Alpha virt. eigenvalues --    0.78927   0.78936   0.79040   0.79201   0.79621
 Alpha virt. eigenvalues --    0.80037   0.80056   0.80281   0.80695   0.80907
 Alpha virt. eigenvalues --    0.81845   0.81915   0.82453   0.82695   0.83042
 Alpha virt. eigenvalues --    0.83383   0.83695   0.84296   0.84497   0.85240
 Alpha virt. eigenvalues --    0.85260   0.85717   0.86023   0.86556   0.87028
 Alpha virt. eigenvalues --    0.87224   0.87745   0.88405   0.88992   0.89508
 Alpha virt. eigenvalues --    0.89826   0.90731   0.91074   0.92011   0.92179
 Alpha virt. eigenvalues --    0.93344   0.93777   0.94167   0.95070   0.95518
 Alpha virt. eigenvalues --    0.95668   0.96385   0.96724   0.96975   0.97658
 Alpha virt. eigenvalues --    0.98292   0.98657   0.99091   0.99266   0.99426
 Alpha virt. eigenvalues --    0.99994   1.00017   1.01299   1.01466   1.02572
 Alpha virt. eigenvalues --    1.02605   1.03178   1.03219   1.03479   1.04001
 Alpha virt. eigenvalues --    1.04310   1.04648   1.04962   1.04994   1.05793
 Alpha virt. eigenvalues --    1.06151   1.06207   1.06762   1.06863   1.06964
 Alpha virt. eigenvalues --    1.07520   1.07995   1.08472   1.09018   1.09708
 Alpha virt. eigenvalues --    1.09740   1.09974   1.10339   1.10590   1.11107
 Alpha virt. eigenvalues --    1.11625   1.11770   1.12080   1.12539   1.12895
 Alpha virt. eigenvalues --    1.13085   1.13635   1.13720   1.14393   1.15025
 Alpha virt. eigenvalues --    1.15224   1.15569   1.16025   1.16058   1.16502
 Alpha virt. eigenvalues --    1.17081   1.17089   1.18508   1.18528   1.19705
 Alpha virt. eigenvalues --    1.19968   1.20468   1.21834   1.22924   1.24726
 Alpha virt. eigenvalues --    1.25622   1.25700   1.25825   1.27298   1.28344
 Alpha virt. eigenvalues --    1.28691   1.28743   1.29968   1.30047   1.31204
 Alpha virt. eigenvalues --    1.31867   1.32120   1.32672   1.34545   1.35551
 Alpha virt. eigenvalues --    1.36427   1.36669   1.37383   1.37578   1.39043
 Alpha virt. eigenvalues --    1.39330   1.40344   1.40399   1.40624   1.41475
 Alpha virt. eigenvalues --    1.41972   1.42475   1.43518   1.43986   1.44474
 Alpha virt. eigenvalues --    1.44765   1.44966   1.46124   1.46720   1.46731
 Alpha virt. eigenvalues --    1.47430   1.48315   1.48524   1.48670   1.48706
 Alpha virt. eigenvalues --    1.48846   1.49180   1.49372   1.49472   1.49867
 Alpha virt. eigenvalues --    1.50202   1.50419   1.50838   1.51220   1.51509
 Alpha virt. eigenvalues --    1.52066   1.52307   1.52418   1.52955   1.53308
 Alpha virt. eigenvalues --    1.53563   1.53644   1.54429   1.54854   1.55796
 Alpha virt. eigenvalues --    1.55998   1.56227   1.56653   1.56874   1.57539
 Alpha virt. eigenvalues --    1.57945   1.58401   1.59355   1.59729   1.60583
 Alpha virt. eigenvalues --    1.60801   1.60806   1.61763   1.62307   1.62796
 Alpha virt. eigenvalues --    1.63060   1.63625   1.63766   1.63815   1.65796
 Alpha virt. eigenvalues --    1.66278   1.66599   1.66791   1.68601   1.68822
 Alpha virt. eigenvalues --    1.68896   1.69748   1.71218   1.71637   1.71771
 Alpha virt. eigenvalues --    1.71928   1.72308   1.73117   1.73252   1.73442
 Alpha virt. eigenvalues --    1.73814   1.73872   1.74335   1.74526   1.74920
 Alpha virt. eigenvalues --    1.75339   1.75895   1.76781   1.77587   1.78352
 Alpha virt. eigenvalues --    1.78649   1.78831   1.79015   1.80113   1.80509
 Alpha virt. eigenvalues --    1.80567   1.81525   1.81939   1.82178   1.82807
 Alpha virt. eigenvalues --    1.82829   1.83068   1.83165   1.83940   1.84325
 Alpha virt. eigenvalues --    1.84877   1.84969   1.85338   1.85513   1.86313
 Alpha virt. eigenvalues --    1.86739   1.87227   1.87343   1.87991   1.88294
 Alpha virt. eigenvalues --    1.88843   1.89137   1.89454   1.89494   1.89793
 Alpha virt. eigenvalues --    1.90032   1.90482   1.90867   1.91289   1.91906
 Alpha virt. eigenvalues --    1.92238   1.92527   1.92793   1.93350   1.93446
 Alpha virt. eigenvalues --    1.93828   1.93925   1.94117   1.94796   1.95122
 Alpha virt. eigenvalues --    1.95715   1.96162   1.96571   1.96786   1.97113
 Alpha virt. eigenvalues --    1.97673   1.97996   1.98432   1.98579   1.98654
 Alpha virt. eigenvalues --    1.99582   2.00498   2.01446   2.02734   2.03231
 Alpha virt. eigenvalues --    2.03478   2.03737   2.03768   2.05500   2.06363
 Alpha virt. eigenvalues --    2.07621   2.07644   2.08520   2.09448   2.09828
 Alpha virt. eigenvalues --    2.11121   2.11288   2.12286   2.12620   2.13317
 Alpha virt. eigenvalues --    2.13813   2.13873   2.14166   2.14923   2.15603
 Alpha virt. eigenvalues --    2.16171   2.17315   2.18399   2.19098   2.19330
 Alpha virt. eigenvalues --    2.19737   2.20044   2.21194   2.22486   2.23516
 Alpha virt. eigenvalues --    2.23794   2.23949   2.24130   2.24168   2.24717
 Alpha virt. eigenvalues --    2.26219   2.26261   2.26883   2.27491   2.27636
 Alpha virt. eigenvalues --    2.27925   2.28894   2.29216   2.29580   2.30120
 Alpha virt. eigenvalues --    2.30218   2.31144   2.32640   2.34097   2.34861
 Alpha virt. eigenvalues --    2.34902   2.36490   2.38150   2.38378   2.38766
 Alpha virt. eigenvalues --    2.39011   2.40431   2.40844   2.41555   2.42420
 Alpha virt. eigenvalues --    2.43909   2.44040   2.44698   2.44934   2.45457
 Alpha virt. eigenvalues --    2.45589   2.47012   2.48022   2.48277   2.50319
 Alpha virt. eigenvalues --    2.52814   2.53015   2.53873   2.54204   2.54799
 Alpha virt. eigenvalues --    2.55486   2.56409   2.57420   2.57494   2.58289
 Alpha virt. eigenvalues --    2.59010   2.59075   2.59441   2.59867   2.60710
 Alpha virt. eigenvalues --    2.60903   2.61235   2.61409   2.61720   2.61837
 Alpha virt. eigenvalues --    2.62319   2.63485   2.63580   2.64053   2.64353
 Alpha virt. eigenvalues --    2.64811   2.64831   2.65226   2.65243   2.66510
 Alpha virt. eigenvalues --    2.66884   2.66973   2.67041   2.67734   2.68193
 Alpha virt. eigenvalues --    2.68377   2.68395   2.68462   2.68793   2.69129
 Alpha virt. eigenvalues --    2.69777   2.69979   2.70065   2.70785   2.71106
 Alpha virt. eigenvalues --    2.71634   2.71953   2.71994   2.72498   2.72652
 Alpha virt. eigenvalues --    2.73728   2.74066   2.74453   2.74632   2.74855
 Alpha virt. eigenvalues --    2.75262   2.75587   2.75785   2.76095   2.76153
 Alpha virt. eigenvalues --    2.77309   2.77556   2.77602   2.77867   2.78131
 Alpha virt. eigenvalues --    2.78578   2.79107   2.79858   2.80423   2.80717
 Alpha virt. eigenvalues --    2.82281   2.82556   2.83519   2.84290   2.84411
 Alpha virt. eigenvalues --    2.85276   2.85507   2.85705   2.86107   2.86967
 Alpha virt. eigenvalues --    2.87060   2.89029   2.89272   2.90020   2.90200
 Alpha virt. eigenvalues --    2.90460   2.90855   2.91546   2.92745   2.93437
 Alpha virt. eigenvalues --    2.93838   2.95097   2.95732   2.96036   2.96048
 Alpha virt. eigenvalues --    2.97446   2.98084   2.98323   2.99304   3.01781
 Alpha virt. eigenvalues --    3.01797   3.02755   3.02861   3.03018   3.04572
 Alpha virt. eigenvalues --    3.06068   3.07088   3.08704   3.09494   3.10671
 Alpha virt. eigenvalues --    3.11598   3.11890   3.16687   3.16935   3.18087
 Alpha virt. eigenvalues --    3.18627   3.18881   3.19315   3.19593   3.21899
 Alpha virt. eigenvalues --    3.22119   3.23465   3.25021   3.26694   3.31120
 Alpha virt. eigenvalues --    3.31230   3.32216   3.32852   3.33049   3.34477
 Alpha virt. eigenvalues --    3.35616   3.37438   3.37656   3.37766   3.38134
 Alpha virt. eigenvalues --    3.38865   3.39247   3.40194   3.41060   3.41409
 Alpha virt. eigenvalues --    3.42665   3.42675   3.43390   3.45631   3.45932
 Alpha virt. eigenvalues --    3.46062   3.47279   3.47751   3.50373   3.50390
 Alpha virt. eigenvalues --    3.51209   3.52741   3.53249   3.54101   3.54281
 Alpha virt. eigenvalues --    3.56588   3.57798   3.59511   3.59616   3.61810
 Alpha virt. eigenvalues --    3.62879   3.63644   3.64593   3.65179   3.66380
 Alpha virt. eigenvalues --    3.66668   3.67315   3.68632   3.69387   3.69843
 Alpha virt. eigenvalues --    3.71564   3.74234   3.76985   3.79462   4.00708
 Alpha virt. eigenvalues --    4.00742   4.01168   4.01479   4.02788   4.02890
 Alpha virt. eigenvalues --    4.03589   4.03872   4.15810   4.16176   4.17608
 Alpha virt. eigenvalues --    4.20603   4.20933   4.21274   4.21322   4.21721
 Alpha virt. eigenvalues --    4.21805   4.24395   4.24868   4.27019   4.28386
 Alpha virt. eigenvalues --    4.31076   4.38865   4.42549   4.63020   4.66164
 Alpha virt. eigenvalues --    4.78131   4.78888   4.79622   4.81767   4.81884
 Alpha virt. eigenvalues --    4.82153   4.82419   4.84229   4.86516   4.86577
 Alpha virt. eigenvalues --   23.42811  23.48779  23.56948  23.65372  23.70906
 Alpha virt. eigenvalues --   23.78103  23.78935  23.81440  23.81802  23.82235
 Alpha virt. eigenvalues --   23.84275  23.86211  23.88253  23.89063  23.89346
 Alpha virt. eigenvalues --   23.90659  23.91519  23.93133  23.93594  23.96535
 Alpha virt. eigenvalues --   23.98103  23.99152  23.99632  24.02479  24.09043
 Alpha virt. eigenvalues --   24.09574  24.10402  24.11253  24.11401  24.11640
 Alpha virt. eigenvalues --   24.12264  24.12847  24.13397  24.15103  24.15252
 Alpha virt. eigenvalues --   24.15277  24.15826  24.16339  24.17240  24.17269
 Alpha virt. eigenvalues --   24.19606  24.19646  24.22169  24.22232
          Condensed to atoms (all electrons):
 Mulliken charges:
               1
     1  C   -0.053828
     2  C   -0.098996
     3  C   -0.043696
     4  C   -0.067011
     5  C   -0.089492
     6  C   -0.097606
     7  C    0.007549
     8  C   -0.051514
     9  C   -0.020918
    10  C   -0.091348
    11  H    0.085943
    12  H    0.078484
    13  H    0.077146
    14  H    0.085454
    15  H    0.099063
    16  H    0.098844
    17  C    0.003102
    18  C   -0.051514
    19  C   -0.025454
    20  C   -0.091348
    21  H    0.077233
    22  H    0.075950
    23  C    0.007549
    24  C   -0.053828
    25  C   -0.020918
    26  C   -0.098996
    27  H    0.078484
    28  H    0.077146
    29  C   -0.043696
    30  C   -0.089492
    31  C   -0.067011
    32  C   -0.097606
    33  H    0.085943
    34  H    0.098844
    35  H    0.099063
    36  H    0.085454
    37  C   -0.001541
    38  C   -0.154985
    39  C   -0.066424
    40  C    0.000602
    41  C   -0.084467
    42  C   -0.138943
    43  C   -0.035729
    44  C    0.010955
    45  C    0.039439
    46  C   -0.164577
    47  H    0.076545
    48  H    0.067772
    49  H    0.104081
    50  H    0.114421
    51  H    0.078669
    52  H    0.088631
    53  C   -0.039623
    54  C    0.010955
    55  C    0.035690
    56  C   -0.164577
    57  H    0.066384
    58  H    0.101668
    59  C   -0.035729
    60  C   -0.001541
    61  C    0.039439
    62  C   -0.154985
    63  H    0.067772
    64  H    0.104081
    65  C   -0.066424
    66  C   -0.084467
    67  C    0.000602
    68  C   -0.138943
    69  H    0.076545
    70  H    0.088631
    71  H    0.078669
    72  H    0.114421
 Sum of Mulliken charges =   0.00000
 Mulliken charges with hydrogens summed into heavy atoms:
               1
     1  C   -0.053828
     2  C   -0.098996
     3  C    0.042248
     4  C    0.018442
     5  C    0.009352
     6  C    0.001458
     7  C    0.086034
     8  C   -0.051514
     9  C    0.056228
    10  C   -0.091348
    17  C    0.080335
    18  C   -0.051514
    19  C    0.050497
    20  C   -0.091348
    23  C    0.086034
    24  C   -0.053828
    25  C    0.056228
    26  C   -0.098996
    29  C    0.042248
    30  C    0.009352
    31  C    0.018442
    32  C    0.001458
    37  C   -0.001541
    38  C   -0.154985
    39  C    0.010121
    40  C    0.115023
    41  C    0.004165
    42  C   -0.060274
    43  C    0.032043
    44  C    0.010955
    45  C    0.143520
    46  C   -0.164577
    53  C    0.026761
    54  C    0.010955
    55  C    0.137358
    56  C   -0.164577
    59  C    0.032043
    60  C   -0.001541
    61  C    0.143520
    62  C   -0.154985
    65  C    0.010121
    66  C    0.004165
    67  C    0.115023
    68  C   -0.060274
         Mulliken charges condensed to fragments:
      1     -0.033017
      2      0.033017
 Electronic spatial extent (au):  <R**2>=          24139.4866
 Charge=              0.0000 electrons
 Dipole moment (field-independent basis, Debye):
    X=              0.2991    Y=             -2.4163    Z=              0.0000  Tot=              2.4348
 Quadrupole moment (field-independent basis, Debye-Ang):
   XX=           -244.6031   YY=           -251.2473   ZZ=           -221.1629
   XY=             -0.1944   XZ=              0.0000   YZ=              0.0000
 Traceless Quadrupole moment (field-independent basis, Debye-Ang):
   XX=             -5.5987   YY=            -12.2429   ZZ=             17.8415
   XY=             -0.1944   XZ=              0.0000   YZ=              0.0000
 Octapole moment (field-independent basis, Debye-Ang**2):
  XXX=             15.4843  YYY=            145.1019  ZZZ=              0.0000  XYY=             -1.9049
  XXY=            -66.3274  XXZ=              0.0000  XZZ=              5.7768  YZZ=            -50.7003
  YYZ=              0.0000  XYZ=              0.0000
 Hexadecapole moment (field-independent basis, Debye-Ang**3):
 XXXX=          -1295.5549 YYYY=          -9196.2500 ZZZZ=         -21132.1860 XXXY=            298.2067
 XXXZ=              0.0000 YYYX=            301.8567 YYYZ=              0.0000 ZZZX=              0.0000
 ZZZY=              0.0000 XXYY=          -1816.2016 XXZZ=          -4151.3151 YYZZ=          -5397.1095
 XXYZ=              0.0000 YYXZ=              0.0000 ZZXY=             86.7764
 N-N= 4.792075369577D+03 E-N=-1.351489441145D+04  KE= 1.686855889911D+03
 Symmetry A'   KE= 9.135338590612D+02
 Symmetry A"   KE= 7.733220308493D+02
 No NMR shielding tensors so no spin-rotation constants.
 Leave Link  601 at Wed Sep 27 16:40:06 2023, MaxMem=  3221225472 cpu:              52.0 elap:               1.4
 (Enter /home/center/opt/aarch64/apps/gaussian16/c01/g16/l122.exe)
 CPIOFr:  IOpCl= 0 IRwI=-1 IRwCP=  731 ICalc= -1 LCPTot=     1419224 Len1MO=     3708034 IndFrg=     1419224
 CPIOFr:  IOpCl= 0 IRwI=-1 IRwCP=  731 ICalc=  0 LCPTot=     1419224 Len1MO=     3708034 IndFrg=     5127258
 Counterpoise: doing calculation for fragment   1 using the basis set of the full-system, NewBq=T
 Leave Link  122 at Wed Sep 27 16:40:09 2023, MaxMem=  3221225472 cpu:               8.3 elap:               0.4
 (Enter /home/center/opt/aarch64/apps/gaussian16/c01/g16/l301.exe)
 Basis read from rwf:  (5D, 7F)
 No pseudopotential information found on rwf file.
 There are   528 symmetry adapted cartesian basis functions of A'  symmetry.
 There are   476 symmetry adapted cartesian basis functions of A"  symmetry.
 There are   504 symmetry adapted basis functions of A'  symmetry.
 There are   456 symmetry adapted basis functions of A"  symmetry.
   960 basis functions,  1632 primitive gaussians,  1004 cartesian basis functions
    73 alpha electrons       73 beta electrons
       nuclear repulsion energy      1494.3575060092 Hartrees.
 IExCor=  402 DFT=T Ex+Corr=B3LYP ExCW=0 ScaHFX=  0.200000
 ScaDFX=  0.800000  0.720000  1.000000  0.810000 ScalE2=  1.000000  1.000000
 IRadAn=      5 IRanWt=     -1 IRanGd=            0 ICorTp=0 IEmpDi=131
 NAtoms=   72 NActive=   72 NUniq=   40 SFac= 3.24D+00 NAtFMM=   60 NAOKFM=T Big=F
 Integral buffers will be    131072 words long.
 Raffenetti 2 integral format.
 Two-electron integral symmetry is turned on.
 R6Disp:  Grimme-D3 Dispersion energy=       -0.0303938888 Hartrees.
 Nuclear repulsion after empirical dispersion term =     1494.3271121204 Hartrees.
 No density basis found on file    718.
 Leave Link  301 at Wed Sep 27 16:40:11 2023, MaxMem=  3221225472 cpu:               1.0 elap:               0.1
 (Enter /home/center/opt/aarch64/apps/gaussian16/c01/g16/l302.exe)
 NPDir=0 NMtPBC=     1 NCelOv=     1 NCel=       1 NClECP=     1 NCelD=      1
         NCelK=      1 NCelE2=     1 NClLst=     1 CellRange=     0.0.
 One-electron integrals computed using PRISM.
 One-electron integral symmetry used in STVInt
 NBasis=   960 RedAO= T EigKep=  3.64D-05  NBF=   504   456
 NBsUse=   960 1.00D-06 EigRej= -1.00D+00 NBFU=   504   456
 Precomputing XC quadrature grid using
 IXCGrd= 4 IRadAn=           5 IRanWt=          -1 IRanGd=           0 AccXCQ= 0.00D+00.
 Generated NRdTot=       0 NPtTot=           0 NUsed=           0 NTot=          32
 NSgBfM=   991   991   991   991   991 MxSgAt=    72 MxSgA2=    72.
 Leave Link  302 at Wed Sep 27 16:40:15 2023, MaxMem=  3221225472 cpu:              60.7 elap:               1.6
 (Enter /home/center/opt/aarch64/apps/gaussian16/c01/g16/l303.exe)
 DipDrv:  MaxL=1.
 Leave Link  303 at Wed Sep 27 16:40:18 2023, MaxMem=  3221225472 cpu:              17.4 elap:               0.5
 (Enter /home/center/opt/aarch64/apps/gaussian16/c01/g16/l401.exe)
 ExpMin= 1.03D-01 ExpMax= 4.56D+03 ExpMxC= 6.82D+02 IAcc=3 IRadAn=         5 AccDes= 0.00D+00
 Harris functional with IExCor=  402 and IRadAn=       5 diagonalized for initial guess.
 HarFok:  IExCor=  402 AccDes= 0.00D+00 IRadAn=         5 IDoV= 1 UseB2=F ITyADJ=14
 ICtDFT=  3500011 ScaDFX=  1.000000  1.000000  1.000000  1.000000
 FoFCou: FMM=F IPFlag=           0 FMFlag=      100000 FMFlg1=        2000
         NFxFlg=           0 DoJE=T BraDBF=F KetDBF=T FulRan=T
         wScrn=  0.000000 ICntrl=       500 IOpCl=  0 I1Cent=   200000004 NGrid=           0
         NMat0=    1 NMatS0=      1 NMatT0=    0 NMatD0=    1 NMtDS0=    0 NMtDT0=    0
 Petite list used in FoFCou.
 Harris En= -847.068328046060    
 JPrj=0 DoOrth=F DoCkMO=F.
 Initial guess orbital symmetries:
       Occupied  (A") (A') (A') (A") (A") (A') (A") (A') (A") (A')
                 (A") (A') (A') (A') (A") (A') (A") (A') (A") (A')
                 (A') (A") (A') (A") (A') (A") (A') (A') (A") (A')
                 (A") (A") (A') (A') (A") (A") (A') (A") (A') (A')
                 (A') (A") (A") (A") (A') (A') (A") (A') (A') (A")
                 (A') (A") (A") (A') (A') (A") (A') (A") (A') (A")
                 (A") (A') (A') (A") (A') (A") (A') (A") (A') (A')
                 (A") (A") (A')
       Virtual   (A') (A") (A") (A') (A') (A") (A') (A") (A') (A")
                 (A') (A') (A") (A') (A") (A') (A') (A") (A") (A')
                 (A") (A") (A') (A') (A') (A") (A') (A") (A') (A')
                 (A') (A") (A") (A') (A') (A") (A') (A") (A') (A")
                 (A') (A") (A") (A') (A") (A") (A') (A') (A") (A')
                 (A') (A') (A") (A') (A") (A") (A') (A") (A') (A')
                 (A') (A") (A') (A') (A") (A") (A") (A') (A") (A')
                 (A") (A') (A") (A') (A') (A") (A') (A') (A") (A')
                 (A') (A") (A") (A") (A') (A") (A') (A") (A') (A')
                 (A") (A") (A") (A') (A') (A') (A') (A') (A') (A")
                 (A") (A') (A') (A") (A") (A') (A") (A") (A') (A")
                 (A') (A') (A") (A') (A") (A") (A') (A") (A') (A")
                 (A') (A') (A") (A") (A') (A') (A") (A') (A") (A')
                 (A') (A') (A") (A") (A') (A") (A') (A') (A') (A")
                 (A") (A') (A') (A") (A") (A") (A') (A') (A") (A")
                 (A') (A") (A') (A') (A") (A') (A") (A') (A") (A')
                 (A") (A') (A') (A') (A") (A') (A") (A") (A') (A")
                 (A') (A") (A") (A') (A') (A') (A") (A") (A') (A')
                 (A") (A") (A') (A") (A') (A') (A") (A') (A") (A')
                 (A") (A') (A') (A") (A') (A") (A') (A") (A') (A")
                 (A') (A") (A') (A") (A') (A") (A") (A") (A') (A')
                 (A") (A') (A") (A') (A") (A') (A") (A') (A') (A")
                 (A') (A") (A') (A") (A") (A') (A') (A") (A') (A")
                 (A') (A") (A') (A") (A') (A') (A") (A") (A') (A')
                 (A') (A') (A") (A") (A') (A") (A") (A") (A") (A')
                 (A') (A') (A') (A") (A') (A") (A") (A') (A") (A')
                 (A") (A') (A') (A") (A') (A") (A') (A") (A') (A")
                 (A') (A") (A') (A') (A") (A") (A") (A') (A') (A')
                 (A") (A') (A") (A") (A") (A') (A') (A") (A') (A')
                 (A') (A") (A') (A") (A') (A") (A') (A") (A') (A")
                 (A') (A") (A') (A") (A') (A") (A') (A") (A") (A')
                 (A') (A") (A") (A') (A') (A') (A") (A") (A') (A")
                 (A") (A') (A') (A") (A') (A') (A") (A") (A') (A')
                 (A') (A') (A") (A') (A') (A") (A") (A") (A") (A')
                 (A') (A") (A") (A') (A") (A') (A") (A') (A') (A")
                 (A') (A") (A') (A') (A') (A") (A') (A") (A") (A')
                 (A') (A") (A') (A') (A') (A") (A') (A") (A") (A")
                 (A') (A") (A") (A') (A") (A') (A") (A') (A") (A')
                 (A") (A") (A') (A') (A") (A') (A') (A") (A') (A")
                 (A") (A') (A') (A") (A') (A") (A') (A") (A') (A')
                 (A") (A') (A") (A") (A') (A") (A') (A") (A') (A')
                 (A") (A") (A') (A") (A') (A') (A") (A") (A') (A')
                 (A") (A") (A') (A") (A") (A') (A") (A") (A') (A")
                 (A') (A') (A') (A') (A') (A") (A") (A') (A') (A')
                 (A") (A") (A') (A") (A') (A') (A") (A") (A') (A")
                 (A") (A') (A") (A') (A") (A") (A') (A') (A") (A")
                 (A') (A') (A') (A") (A") (A') (A') (A") (A') (A")
                 (A') (A") (A') (A") (A") (A") (A') (A') (A") (A")
                 (A') (A') (A") (A') (A') (A") (A') (A") (A") (A')
                 (A") (A') (A') (A") (A') (A') (A") (A") (A') (A")
                 (A') (A") (A') (A") (A') (A") (A") (A') (A') (A')
                 (A") (A") (A") (A') (A') (A') (A") (A") (A') (A")
                 (A") (A') (A') (A") (A') (A') (A") (A') (A") (A')
                 (A") (A') (A') (A") (A") (A') (A") (A') (A") (A')
                 (A') (A") (A') (A') (A') (A") (A') (A") (A") (A')
                 (A") (A') (A") (A') (A") (A") (A') (A") (A') (A')
                 (A") (A") (A') (A') (A') (A") (A") (A') (A") (A')
                 (A') (A") (A') (A') (A") (A') (A') (A") (A") (A")
                 (A') (A') (A") (A") (A') (A") (A") (A') (A') (A")
                 (A') (A') (A') (A") (A') (A") (A") (A') (A") (A')
                 (A") (A') (A") (A") (A') (A') (A") (A') (A") (A')
                 (A") (A') (A') (A") (A') (A") (A') (A") (A') (A")
                 (A') (A') (A") (A") (A') (A") (A') (A") (A') (A")
                 (A") (A") (A') (A') (A") (A") (A') (A') (A') (A")
                 (A') (A") (A") (A') (A') (A') (A") (A") (A") (A')
                 (A") (A') (A') (A") (A") (A') (A") (A') (A") (A')
                 (A") (A") (A') (A') (A") (A') (A") (A') (A") (A')
                 (A') (A") (A') (A") (A') (A") (A') (A") (A') (A')
                 (A") (A') (A') (A") (A') (A') (A") (A') (A") (A')
                 (A") (A") (A') (A") (A') (A") (A') (A') (A") (A')
                 (A") (A") (A') (A") (A') (A") (A') (A') (A") (A')
[...]
                 (A') (A') (A") (A") (A') (A") (A') (A") (A') (A')
                 (A") (A") (A')
       Virtual   (A') (A") (A") (A') (A') (A") (A') (A') (A') (A")
                 (A") (A') (A") (A') (A") (A') (A") (A") (A') (A")
                 (A') (A') (A") (A') (A") (A') (A') (A') (A') (A")
                 (A") (A") (A") (A') (A') (A") (A') (A") (A') (A")
                 (A') (A') (A') (A") (A') (A") (A") (A') (A') (A")
                 (A") (A') (A') (A") (A') (A") (A") (A") (A') (A")
                 (A') (A') (A') (A') (A') (A") (A') (A') (A") (A")
                 (A") (A') (A') (A') (A") (A') (A") (A") (A") (A')
                 (A') (A") (A') (A") (A") (A') (A") (A') (A') (A')
                 (A') (A') (A") (A") (A") (A") (A') (A") (A') (A")
                 (A') (A') (A') (A") (A") (A') (A') (A") (A') (A")
                 (A') (A") (A") (A") (A') (A') (A") (A') (A') (A")
                 (A') (A") (A") (A') (A') (A") (A') (A") (A') (A")
                 (A") (A') (A') (A') (A') (A") (A") (A") (A') (A")
                 (A') (A") (A') (A") (A') (A') (A") (A") (A') (A")
                 (A') (A") (A') (A") (A') (A') (A") (A') (A") (A")
                 (A') (A") (A') (A') (A") (A") (A') (A") (A') (A")
                 (A') (A') (A") (A') (A') (A") (A") (A') (A') (A')
                 (A") (A') (A") (A") (A") (A") (A') (A") (A') (A')
                 (A") (A') (A") (A') (A') (A') (A") (A') (A") (A')
                 (A") (A") (A') (A') (A") (A") (A') (A') (A") (A')
                 (A') (A') (A') (A") (A") (A") (A") (A') (A') (A")
                 (A') (A") (A") (A') (A") (A') (A") (A') (A") (A')
                 (A") (A') (A') (A") (A') (A") (A") (A') (A') (A")
                 (A") (A') (A') (A") (A") (A') (A") (A") (A") (A')
                 (A') (A") (A') (A') (A") (A') (A') (A") (A') (A")
                 (A") (A') (A") (A') (A') (A") (A") (A") (A') (A')
                 (A") (A') (A') (A") (A") (A") (A') (A") (A') (A')
                 (A") (A') (A") (A') (A") (A') (A') (A') (A") (A')
                 (A") (A") (A') (A') (A") (A") (A') (A") (A') (A")
                 (A') (A') (A") (A") (A') (A') (A") (A') (A') (A')
                 (A") (A") (A') (A") (A') (A") (A') (A") (A') (A')
                 (A') (A") (A") (A") (A') (A") (A') (A') (A') (A")
                 (A") (A') (A") (A') (A') (A") (A') (A") (A") (A')
                 (A') (A") (A') (A") (A") (A') (A') (A") (A') (A")
                 (A') (A") (A') (A") (A') (A") (A") (A') (A') (A")
                 (A') (A") (A') (A') (A") (A") (A') (A") (A') (A')
                 (A") (A') (A") (A') (A') (A") (A') (A") (A') (A")
                 (A") (A') (A") (A') (A") (A') (A") (A') (A') (A")
                 (A") (A') (A") (A') (A') (A") (A") (A') (A') (A")
                 (A') (A") (A') (A") (A') (A') (A")
 The electronic state is 1-A'.
 Alpha  occ. eigenvalues --  -10.18931 -10.18930 -10.18896 -10.18895 -10.18848
 Alpha  occ. eigenvalues --  -10.18848 -10.18813 -10.18813 -10.17956 -10.17955
 Alpha  occ. eigenvalues --  -10.17920 -10.17920 -10.17919 -10.17919 -10.17875
 Alpha  occ. eigenvalues --  -10.17875 -10.17863 -10.17863 -10.17808 -10.17808
 Alpha  occ. eigenvalues --  -10.17781 -10.17781  -0.89340  -0.87865  -0.85549
 Alpha  occ. eigenvalues --   -0.82415  -0.79820  -0.78521  -0.78314  -0.75991
 Alpha  occ. eigenvalues --   -0.74255  -0.72901  -0.69196  -0.67344  -0.62728
 Alpha  occ. eigenvalues --   -0.62370  -0.61108  -0.59964  -0.59301  -0.57689
 Alpha  occ. eigenvalues --   -0.52709  -0.52573  -0.52293  -0.49654  -0.48513
 Alpha  occ. eigenvalues --   -0.47160  -0.46110  -0.45590  -0.45476  -0.43928
 Alpha  occ. eigenvalues --   -0.43182  -0.42578  -0.41808  -0.41572  -0.41386
 Alpha  occ. eigenvalues --   -0.40692  -0.40405  -0.39579  -0.38193  -0.36732
 Alpha  occ. eigenvalues --   -0.36341  -0.35550  -0.34094  -0.33809  -0.33058
 Alpha  occ. eigenvalues --   -0.32930  -0.31612  -0.29665  -0.28406  -0.26623
 Alpha  occ. eigenvalues --   -0.24364  -0.22582  -0.17855
 Alpha virt. eigenvalues --   -0.09755  -0.04464  -0.02747  -0.00147   0.02073
 Alpha virt. eigenvalues --    0.02370   0.03189   0.04746   0.04859   0.04871
 Alpha virt. eigenvalues --    0.06161   0.06575   0.07968   0.08162   0.08303
 Alpha virt. eigenvalues --    0.09607   0.10049   0.11524   0.11533   0.13796
 Alpha virt. eigenvalues --    0.14111   0.14670   0.18092   0.18194   0.18832
 Alpha virt. eigenvalues --    0.19391   0.22815   0.23002   0.24379   0.24942
 Alpha virt. eigenvalues --    0.25581   0.27528   0.27575   0.28012   0.28228
 Alpha virt. eigenvalues --    0.28947   0.29389   0.30158   0.30759   0.31175
 Alpha virt. eigenvalues --    0.32897   0.34528   0.36420   0.36484   0.37134
 Alpha virt. eigenvalues --    0.37503   0.37629   0.37651   0.38116   0.38643
 Alpha virt. eigenvalues --    0.39094   0.39439   0.39739   0.40236   0.40435
 Alpha virt. eigenvalues --    0.41918   0.41926   0.41940   0.42289   0.42318
 Alpha virt. eigenvalues --    0.42643   0.43748   0.44233   0.44835   0.45295
 Alpha virt. eigenvalues --    0.45683   0.45924   0.45953   0.46379   0.47165
 Alpha virt. eigenvalues --    0.47805   0.47809   0.47978   0.48073   0.48231
 Alpha virt. eigenvalues --    0.48568   0.49414   0.49572   0.51377   0.51846
 Alpha virt. eigenvalues --    0.52370   0.53118   0.53671   0.55998   0.57923
 Alpha virt. eigenvalues --    0.57955   0.59048   0.59201   0.60433   0.60585
 Alpha virt. eigenvalues --    0.60693   0.61101   0.61690   0.62105   0.62173
 Alpha virt. eigenvalues --    0.63432   0.63481   0.64458   0.64535   0.65533
 Alpha virt. eigenvalues --    0.66693   0.66910   0.67680   0.67724   0.70658
 Alpha virt. eigenvalues --    0.71305   0.71405   0.71494   0.72803   0.73989
 Alpha virt. eigenvalues --    0.75405   0.75894   0.76289   0.77801   0.77809
 Alpha virt. eigenvalues --    0.78943   0.79160   0.79723   0.81162   0.81509
 Alpha virt. eigenvalues --    0.82881   0.83001   0.84383   0.84585   0.84713
 Alpha virt. eigenvalues --    0.88087   0.89711   0.89765   0.91536   0.92083
 Alpha virt. eigenvalues --    0.92578   0.93749   0.95806   0.96107   0.96442
 Alpha virt. eigenvalues --    0.96590   0.96905   0.98547   1.00356   1.01118
 Alpha virt. eigenvalues --    1.02686   1.03027   1.03354   1.04405   1.05244
 Alpha virt. eigenvalues --    1.05439   1.05525   1.05950   1.07395   1.07547
 Alpha virt. eigenvalues --    1.07686   1.08438   1.10005   1.10036   1.12070
 Alpha virt. eigenvalues --    1.13223   1.13544   1.13650   1.14526   1.15341
 Alpha virt. eigenvalues --    1.17432   1.18332   1.19657   1.20432   1.23014
 Alpha virt. eigenvalues --    1.23618   1.27884   1.28234   1.30579   1.32076
 Alpha virt. eigenvalues --    1.32743   1.34942   1.37641   1.39236   1.39896
 Alpha virt. eigenvalues --    1.39942   1.40725   1.42751   1.43476   1.43554
 Alpha virt. eigenvalues --    1.45057   1.46086   1.47119   1.47538   1.48841
 Alpha virt. eigenvalues --    1.49280   1.49417   1.50258   1.50674   1.52268
 Alpha virt. eigenvalues --    1.52650   1.53402   1.54331   1.54372   1.54781
 Alpha virt. eigenvalues --    1.54807   1.57107   1.57715   1.58569   1.59882
 Alpha virt. eigenvalues --    1.60106   1.62692   1.63242   1.64856   1.66641
 Alpha virt. eigenvalues --    1.69292   1.69605   1.69709   1.70649   1.71804
 Alpha virt. eigenvalues --    1.72459   1.72619   1.73075   1.73096   1.73680
 Alpha virt. eigenvalues --    1.77494   1.78519   1.79157   1.79419   1.80511
 Alpha virt. eigenvalues --    1.81616   1.81887   1.82058   1.83581   1.84039
 Alpha virt. eigenvalues --    1.85487   1.87392   1.87456   1.87577   1.87728
 Alpha virt. eigenvalues --    1.88131   1.88613   1.90743   1.91387   1.92190
 Alpha virt. eigenvalues --    1.92193   1.92572   1.92670   1.93517   1.93938
 Alpha virt. eigenvalues --    1.94544   1.95483   1.97262   1.99429   2.00088
 Alpha virt. eigenvalues --    2.00602   2.01362   2.03019   2.05757   2.08293
 Alpha virt. eigenvalues --    2.09111   2.09256   2.09792   2.12192   2.14098
 Alpha virt. eigenvalues --    2.15528   2.15584   2.17200   2.19751   2.20833
 Alpha virt. eigenvalues --    2.21576   2.22525   2.23381   2.24503   2.26441
 Alpha virt. eigenvalues --    2.26972   2.27242   2.27719   2.28046   2.29391
 Alpha virt. eigenvalues --    2.33301   2.35725   2.39155   2.39384   2.40817
 Alpha virt. eigenvalues --    2.42649   2.43076   2.45776   2.45994   2.46870
 Alpha virt. eigenvalues --    2.51623   2.51954   2.53354   2.53485   2.55138
 Alpha virt. eigenvalues --    2.56159   2.58701   2.58838   2.59764   2.59776
 Alpha virt. eigenvalues --    2.60682   2.61147   2.61719   2.62222   2.63349
 Alpha virt. eigenvalues --    2.63999   2.64478   2.66054   2.66794   2.67121
 Alpha virt. eigenvalues --    2.67374   2.68356   2.68872   2.68876   2.69372
 Alpha virt. eigenvalues --    2.69557   2.69907   2.70083   2.70281   2.73482
 Alpha virt. eigenvalues --    2.74771   2.74836   2.76066   2.77101   2.77577
 Alpha virt. eigenvalues --    2.78232   2.78455   2.78850   2.80822   2.82359
 Alpha virt. eigenvalues --    2.85535   2.85993   2.86737   2.87294   2.90966
 Alpha virt. eigenvalues --    2.91783   2.92195   2.93676   2.95232   2.95887
 Alpha virt. eigenvalues --    2.99270   2.99858   3.03165   3.05604   3.06852
 Alpha virt. eigenvalues --    3.07371   3.15988   3.16029   3.16647   3.19843
 Alpha virt. eigenvalues --    3.20017   3.23601   3.29134   3.29680   3.31610
 Alpha virt. eigenvalues --    3.35095   3.35458   3.35677   3.35858   3.38023
 Alpha virt. eigenvalues --    3.39887   3.41413   3.44960   3.45362   3.47993
 Alpha virt. eigenvalues --    3.48278   3.50401   3.53073   3.57439   3.58649
 Alpha virt. eigenvalues --    3.61466   3.62620   3.63208   3.63698   3.65910
 Alpha virt. eigenvalues --    3.67534   3.67678   4.00384   4.00442   4.01859
 Alpha virt. eigenvalues --    4.02182   4.16133   4.16678   4.17360   4.21240
 Alpha virt. eigenvalues --    4.22396   4.22517   4.25488   4.38492   4.62290
 Alpha virt. eigenvalues --    4.79179   4.79740   4.80562   4.82562   4.83014
 Alpha virt. eigenvalues --   23.39176  23.54541  23.69085  23.77378  23.80419
 Alpha virt. eigenvalues --   23.81537  23.86099  23.89067  23.89154  23.92210
 Alpha virt. eigenvalues --   23.97563  23.98365  24.09049  24.09932  24.10529
 Alpha virt. eigenvalues --   24.12220  24.13779  24.14375  24.15775  24.15810
 Alpha virt. eigenvalues --   24.20452  24.20497
          Condensed to atoms (all electrons):
 Mulliken charges:
               1
     1  C    0.000000
     2  C    0.000000
     3  C    0.000000
     4  C    0.000000
     5  C    0.000000
     6  C    0.000000
     7  C    0.000000
     8  C    0.000000
     9  C    0.000000
    10  C    0.000000
    11  H    0.000000
    12  H    0.000000
    13  H    0.000000
    14  H    0.000000
    15  H    0.000000
    16  H    0.000000
    17  C    0.000000
    18  C    0.000000
    19  C    0.000000
    20  C    0.000000
    21  H    0.000000
    22  H    0.000000
    23  C    0.000000
    24  C    0.000000
    25  C    0.000000
    26  C    0.000000
    27  H    0.000000
    28  H    0.000000
    29  C    0.000000
    30  C    0.000000
    31  C    0.000000
    32  C    0.000000
    33  H    0.000000
    34  H    0.000000
    35  H    0.000000
    36  H    0.000000
    37  C   -0.059168
    38  C   -0.059168
    39  C   -0.055977
    40  C   -0.055977
    41  C   -0.092198
    42  C   -0.092198
    43  C   -0.016525
    44  C   -0.054498
    45  C   -0.016525
    46  C   -0.054498
    47  H    0.082122
    48  H    0.074853
    49  H    0.074853
    50  H    0.082122
    51  H    0.094847
    52  H    0.094847
    53  C   -0.020341
    54  C   -0.054498
    55  C   -0.020341
    56  C   -0.054498
    57  H    0.073428
    58  H    0.073428
    59  C   -0.016525
    60  C   -0.059168
    61  C   -0.016525
    62  C   -0.059168
    63  H    0.074853
    64  H    0.074853
    65  C   -0.055977
    66  C   -0.092198
    67  C   -0.055977
    68  C   -0.092198
    69  H    0.082122
    70  H    0.094847
    71  H    0.094847
    72  H    0.082122
 Sum of Mulliken charges =   0.00000
 Mulliken charges with hydrogens summed into heavy atoms:
               1
     1  C    0.000000
     2  C    0.000000
     3  C    0.000000
     4  C    0.000000
     5  C    0.000000
     6  C    0.000000
     7  C    0.000000
     8  C    0.000000
     9  C    0.000000
    10  C    0.000000
    17  C    0.000000
    18  C    0.000000
    19  C    0.000000
    20  C    0.000000
    23  C    0.000000
    24  C    0.000000
    25  C    0.000000
    26  C    0.000000
    29  C    0.000000
    30  C    0.000000
    31  C    0.000000
    32  C    0.000000
    37  C   -0.059168
    38  C   -0.059168
    39  C    0.026144
    40  C    0.026144
    41  C    0.002649
    42  C    0.002649
    43  C    0.058328
    44  C   -0.054498
    45  C    0.058328
    46  C   -0.054498
    53  C    0.053087
    54  C   -0.054498
    55  C    0.053087
    56  C   -0.054498
    59  C    0.058328
    60  C   -0.059168
    61  C    0.058328
    62  C   -0.059168
    65  C    0.026144
    66  C    0.002649
    67  C    0.026144
    68  C    0.002649
         Mulliken charges condensed to fragments:
      1      0.000000
      2      0.000000
 Electronic spatial extent (au):  <R**2>=          15685.0348
 Charge=              0.0000 electrons
 Dipole moment (field-independent basis, Debye):
    X=              0.0000    Y=              0.0000    Z=              0.0000  Tot=              0.0000
 Quadrupole moment (field-independent basis, Debye-Ang):
   XX=           -136.3921   YY=           -110.7480   ZZ=           -109.0115
   XY=              0.0000   XZ=              0.0000   YZ=              0.0000
 Traceless Quadrupole moment (field-independent basis, Debye-Ang):
   XX=            -17.6749   YY=              7.9692   ZZ=              9.7057
   XY=              0.0000   XZ=              0.0000   YZ=              0.0000
 Octapole moment (field-independent basis, Debye-Ang**2):
  XXX=           1012.6594  YYY=            822.2622  ZZZ=              0.0000  XYY=            274.0874
  XXY=            337.5531  XXZ=              0.0000  XZZ=            269.7896  YZZ=            269.7896
  YYZ=              0.0000  XYZ=              0.0000
 Hexadecapole moment (field-independent basis, Debye-Ang**3):
 XXXX=          -5166.8121 YYYY=          -5186.7070 ZZZZ=         -10461.4324 XXXY=          -2506.2041
 XXXZ=              0.0000 YYYX=          -2034.9951 YYYZ=              0.0000 ZZZX=              0.0000
 ZZZY=              0.0000 XXYY=          -1770.1484 XXZZ=          -2875.6273 YYZZ=          -2636.9097
 XXYZ=              0.0000 YYXZ=              0.0000 ZZXY=           -667.6953
 N-N= 1.494327112715D+03 E-N=-4.953709177005D+03  KE= 8.433374905337D+02
 Symmetry A'   KE= 4.567052305547D+02
 Symmetry A"   KE= 3.866322599790D+02
 No NMR shielding tensors so no spin-rotation constants.
 Leave Link  601 at Wed Sep 27 16:58:07 2023, MaxMem=  3221225472 cpu:              19.1 elap:               0.5
 (Enter /home/center/opt/aarch64/apps/gaussian16/c01/g16/l122.exe)
 CPIOFr:  IOpCl= 0 IRwI=-1 IRwCP=  731 ICalc=  4 LCPTot=     1419224 Len1MO=     3708034 IndFrg=    19959394
 Restoring MOs from calculation   1 to rwf.
 CPIOFr:  IOpCl= 0 IRwI=-2 IRwCP=  731 ICalc=  0 LCPTot=     1419224 Len1MO=     3708034 IndFrg=     5127258
 Counterpoise corrected energy =   -1694.043225467197
                   BSSE energy =       0.000263417987
              sum of fragments =   -1694.039683044256
           complexation energy =      -2.39 kcal/mole (raw)
           complexation energy =      -2.22 kcal/mole (corrected)
 Leave Link  122 at Wed Sep 27 16:58:09 2023, MaxMem=  3221225472 cpu:               8.3 elap:               0.3
 (Enter /home/center/opt/aarch64/apps/gaussian16/c01/g16/l9999.exe)

 Test job not archived.
 1\1\GINC-FX0520\SP\RB3LYP\6-311G(d,p)\C44H28\Z40145W\27-Sep-2023\0\\#P
  TEST b3lyp/6-311G** EmpiricalDispersion=GD3 counterpoise=2\\pentacene
 _A1=0_A2=0_A3=45_p2\\0,1\C,0,-0.5039478476,0.5239478476,-3.6612755801\
 C,0,0.5239480325,-0.5039480325,-3.6612755629\C,0,-0.9861248463,1.00612
 48463,-4.9235927708\C,0,1.0061250889,-0.9861250889,-4.9235926697\C,0,-
 0.4963213507,0.5163213507,-6.096356521\C,0,0.5163216812,-0.4963216812,
 -6.0963564796\C,0,-0.9844684311,1.0044684311,-2.4533174875\C,0,-0.5044
 88426,0.524488426,-1.2140288145\C,0,1.0044685359,-0.9844685359,-2.4533
 173917\C,0,0.5244885437,-0.5044885437,-1.2140288362\H,0,-1.7533559667,
 1.7733559667,-4.9232600459\H,0,-1.7521866813,1.7721866813,-2.453928581
 5\H,0,1.7721859268,-1.7521859268,-2.4539284818\H,0,1.7733558421,-1.753
 3558421,-4.9232597785\H,0,0.8905568758,-0.8705568758,-7.0425276922\H,0
 ,-0.8705565046,0.8905565046,-7.042527775\C,0,-0.9848184961,1.004818496
 1,0.0099998782\C,0,-0.5044883957,0.5244883957,1.2340295553\C,0,1.00481
 85643,-0.9848185643,0.0099998696\C,0,0.5244885146,-0.5044885146,1.2340
 295261\H,0,-1.7524699697,1.7724699697,0.0099999205\H,0,1.772468921,-1.
 752468921,0.0099999641\C,0,-0.9844683048,1.0044683048,2.4733171385\C,0
 ,-0.5039477114,0.5239477114,3.681276331\C,0,1.0044684211,-0.9844684211
 ,2.4733170835\C,0,0.5239479079,-0.5039479079,3.6812763217\H,0,-1.75218
 65527,1.7721865527,2.4739285326\H,0,1.7721858092,-1.7521858092,2.47392
 83796\C,0,-0.9861245177,1.0061245177,4.9435920588\C,0,-0.4963209372,0.
 5163209372,6.116356633\C,0,1.0061247659,-0.9861247659,4.9435919377\C,0
 ,0.5163212637,-0.4963212637,6.1163566075\H,0,-1.7533556504,1.773355650
 4,4.9432601504\H,0,-0.8705567426,0.8905567426,7.0625274368\H,0,0.89055
 70967,-0.8705570967,7.0625272142\H,0,1.7733555414,-1.7533555414,4.9432
 599297\C,0,6.4960521524,0.5239478476,-3.6612755801\C,0,7.5239480325,-0
 .5039480325,-3.6612755629\C,0,6.0138751537,1.0061248463,-4.9235927708\
 C,0,8.0061250889,-0.9861250889,-4.9235926697\C,0,6.5036786493,0.516321
 3507,-6.096356521\C,0,7.5163216812,-0.4963216812,-6.0963564796\C,0,6.0
 155315689,1.0044684311,-2.4533174875\C,0,6.495511574,0.524488426,-1.21
 40288145\C,0,8.0044685359,-0.9844685359,-2.4533173917\C,0,7.5244885437
 ,-0.5044885437,-1.2140288362\H,0,5.2466440333,1.7733559667,-4.92326004
 59\H,0,5.2478133187,1.7721866813,-2.4539285815\H,0,8.7721859268,-1.752
 1859268,-2.4539284818\H,0,8.7733558421,-1.7533558421,-4.9232597785\H,0
 ,7.8905568758,-0.8705568758,-7.0425276922\H,0,6.1294434954,0.890556504
 6,-7.042527775\C,0,6.0151815039,1.0048184961,0.0099998782\C,0,6.495511
 6043,0.5244883957,1.2340295553\C,0,8.0048185643,-0.9848185643,0.009999
 8696\C,0,7.5244885146,-0.5044885146,1.2340295261\H,0,5.2475300303,1.77
 24699697,0.0099999205\H,0,8.772468921,-1.752468921,0.0099999641\C,0,6.
 0155316952,1.0044683048,2.4733171385\C,0,6.4960522886,0.5239477114,3.6
 81276331\C,0,8.0044684211,-0.9844684211,2.4733170835\C,0,7.5239479079,
 -0.5039479079,3.6812763217\H,0,5.2478134473,1.7721865527,2.4739285326\
 H,0,8.7721858092,-1.7521858092,2.4739283796\C,0,6.0138754823,1.0061245
 177,4.9435920588\C,0,6.5036790628,0.5163209372,6.116356633\C,0,8.00612
 47659,-0.9861247659,4.9435919377\C,0,7.5163212637,-0.4963212637,6.1163
 566075\H,0,5.2466443496,1.7733556504,4.9432601504\H,0,6.1294432574,0.8
 905567426,7.0625274368\H,0,7.8905570967,-0.8705570967,7.0625272142\H,0
 ,8.7733555414,-1.7533555414,4.9432599297\\Version=Fujitsu-Arm-G16RevC.
 01\State=1-A'\HF=-847.0198415\RMSD=3.180e-09\Dipole=-0.0000007,0.00000
 08,0.\Quadrupole=-8.0935271,-6.2206603,14.3141874,-18.1106223,0.,0.\PG
 =CS [SG(C4H4),X(C40H24)]\\@


  DISAPPOINTMENT IS THE NURSE OF WISDOM.               
                              SIR BOYLE ROCHE                 
 Job cpu time:       0 days  3 hours  0 minutes 45.2 seconds.
 Elapsed time:       0 days  0 hours  4 minutes 43.6 seconds.
 File lengths (MBytes):  RWF=    718 Int=      0 D2E=      0 Chk=    208 Scr=      1
 Normal termination of Gaussian 16 at Wed Sep 27 16:58:15 2023.
