 Entering Gaussian System, Link 0=g16
 Initial command:
 /home/center/opt/aarch64/apps/gaussian16/c01/g16/l1.exe "/data/tmp/Gtmp/1006994/Gau-50.inp" -scrdir="/data/tmp/Gtmp/1006994/"
 Entering Link 1 = /home/center/opt/aarch64/apps/gaussian16/c01/g16/l1.exe PID=        51.
  
 Copyright (c) 1988-2019, Gaussian, Inc.  All Rights Reserved.
  
 This is part of the Gaussian(R) 16 program.  It is based on
 the Gaussian(R) 09 system (copyright 2009, Gaussian, Inc.),
 the Gaussian(R) 03 system (copyright 2003, Gaussian, Inc.),
 the Gaussian(R) 98 system (copyright 1998, Gaussian, Inc.),
 the Gaussian(R) 94 system (copyright 1995, Gaussian, Inc.),
 the Gaussian 92(TM) system (copyright 1992, Gaussian, Inc.),
 the Gaussian 90(TM) system (copyright 1990, Gaussian, Inc.),
 the Gaussian 88(TM) system (copyright 1988, Gaussian, Inc.),
 the Gaussian 86(TM) system (copyright 1986, Carnegie Mellon
 University), and the Gaussian 82(TM) system (copyright 1983,
 Carnegie Mellon University). Gaussian is a federally registered
 trademark of Gaussian, Inc.
  
 This software contains proprietary and confidential information,
 including trade secrets, belonging to Gaussian, Inc.
  
 This software is provided under written license and may be
 used, copied, transmitted, or stored only in accord with that
 written license.
  
 The following legend is applicable only to US Government
 contracts under FAR:
  
                    RESTRICTED RIGHTS LEGEND
  
 Use, reproduction and disclosure by the US Government is
 subject to restrictions as set forth in subparagraphs (a)
 and (c) of the Commercial Computer Software - Restricted
 Rights clause in FAR 52.227-19.
  
 Gaussian, Inc.
 340 Quinnipiac St., Bldg. 40, Wallingford CT 06492
  
  
 ---------------------------------------------------------------
 Warning -- This program may not be used in any manner that
 competes with the business of Gaussian, Inc. or will provide
 assistance to any competitor of Gaussian, Inc.  The licensee
 of this program is prohibited from giving any competitor of
 Gaussian, Inc. access to this program.  By using this program,
 the user acknowledges that Gaussian, Inc. is engaged in the
 business of creating and licensing software in the field of
 computational chemistry and represents and warrants to the
 licensee that it is not a competitor of Gaussian, Inc. and that
 it will not use this program in any manner prohibited above.
 ---------------------------------------------------------------
  

 Cite this work as:
 Gaussian 16, Revision C.01,
 M. J. Frisch, G. W. Trucks, H. B. Schlegel, G. E. Scuseria, 
 M. A. Robb, J. R. Cheeseman, G. Scalmani, V. Barone, 
 G. A. Petersson, H. Nakatsuji, X. Li, M. Caricato, A. V. Marenich, 
 J. Bloino, B. G. Janesko, R. Gomperts, B. Mennucci, H. P. Hratchian, 
 J. V. Ortiz, A. F. Izmaylov, J. L. Sonnenberg, D. Williams-Young, 
 F. Ding, F. Lipparini, F. Egidi, J. Goings, B. Peng, A. Petrone, 
 T. Henderson, D. Ranasinghe, V. G. Zakrzewski, J. Gao, N. Rega, 
 G. Zheng, W. Liang, M. Hada, M. Ehara, K. Toyota, R. Fukuda, 
 J. Hasegawa, M. Ishida, T. Nakajima, Y. Honda, O. Kitao, H. Nakai, 
 T. Vreven, K. Throssell, J. A. Montgomery, Jr., J. E. Peralta, 
 F. Ogliaro, M. J. Bearpark, J. J. Heyd, E. N. Brothers, K. N. Kudin, 
 V. N. Staroverov, T. A. Keith, R. Kobayashi, J. Normand, 
 K. Raghavachari, A. P. Rendell, J. C. Burant, S. S. Iyengar, 
 J. Tomasi, M. Cossi, J. M. Millam, M. Klene, C. Adamo, R. Cammi, 
 J. W. Ochterski, R. L. Martin, K. Morokuma, O. Farkas, 
 J. B. Foresman, and D. J. Fox, Gaussian, Inc., Wallingford CT, 2019.
 
 ************************************************
 Gaussian 16:  Fujitsu-Arm-G16RevC.01  3-Jul-2019
                   27-Sep-2023 
 ************************************************
 %mem=24GB
 %nproc=42
 Will use up to   42 processors via shared memory.
 -------------------------------------------------------------
 #P TEST b3lyp/6-311G** EmpiricalDispersion=GD3 counterpoise=2
 -------------------------------------------------------------
 1/38=1,62=2,172=1/1;
 2/12=2,17=6,18=5,40=1/2;
 1/38=1,53=2,62=2,63=1/22;
 3/5=4,6=6,7=101,11=2,25=1,30=1,74=-5,124=31/1,2,3;
 4//1;
 5/5=2,38=5/2;
 6/7=2,8=2,9=2,10=2,28=1/1;
 1/53=2,62=2,63=1/22;
 3/5=7,6=11,7=101,11=2,25=1,30=1,74=-5,82=7,124=31/1,2,3;
 4//1;
 5/5=2,38=5/2;
 6/7=2,8=2,9=2,10=2,28=1/1;
 1/53=2,62=2,63=1/22(-4);
 99/5=1,9=1/99;
 Leave Link    1 at Wed Sep 27 16:57:52 2023, MaxMem=  3221225472 cpu:               1.1 elap:               0.2
 (Enter /home/center/opt/aarch64/apps/gaussian16/c01/g16/l101.exe)
 ----------------------------
 pentacene_A1=0_A2=0_A3=45_t1
 ----------------------------
 Symbolic Z-matrix:
 Charge =  0 Multiplicity = 1 in supermolecule
 Charge =  0 Multiplicity = 1 in fragment      1.
 Charge =  0 Multiplicity = 1 in fragment      2.
 C(Fragment=1)        -0.50395   0.52395  -3.66128 
 C(Fragment=1)         0.52395  -0.50395  -3.66128 
 C(Fragment=1)        -0.98612   1.00612  -4.92359 
 C(Fragment=1)         1.00613  -0.98613  -4.92359 
 C(Fragment=1)        -0.49632   0.51632  -6.09636 
 C(Fragment=1)         0.51632  -0.49632  -6.09636 
 C(Fragment=1)        -0.98447   1.00447  -2.45332 
 C(Fragment=1)        -0.50449   0.52449  -1.21403 
 C(Fragment=1)         1.00447  -0.98447  -2.45332 
 C(Fragment=1)         0.52449  -0.50449  -1.21403 
 H(Fragment=1)        -1.75336   1.77336  -4.92326 
 H(Fragment=1)        -1.75219   1.77219  -2.45393 
 H(Fragment=1)         1.77219  -1.75219  -2.45393 
 H(Fragment=1)         1.77336  -1.75336  -4.92326 
 H(Fragment=1)         0.89056  -0.87056  -7.04253 
 H(Fragment=1)        -0.87056   0.89056  -7.04253 
 C(Fragment=1)        -0.98482   1.00482   0.01 
 C(Fragment=1)        -0.50449   0.52449   1.23403 
 C(Fragment=1)         1.00482  -0.98482   0.01 
 C(Fragment=1)         0.52449  -0.50449   1.23403 
 H(Fragment=1)        -1.75247   1.77247   0.01 
 H(Fragment=1)         1.77247  -1.75247   0.01 
 C(Fragment=1)        -0.98447   1.00447   2.47332 
 C(Fragment=1)        -0.50395   0.52395   3.68128 
 C(Fragment=1)         1.00447  -0.98447   2.47332 
 C(Fragment=1)         0.52395  -0.50395   3.68128 
 H(Fragment=1)        -1.75219   1.77219   2.47393 
 H(Fragment=1)         1.77219  -1.75219   2.47393 
 C(Fragment=1)        -0.98612   1.00612   4.94359 
 C(Fragment=1)        -0.49632   0.51632   6.11636 
 C(Fragment=1)         1.00612  -0.98612   4.94359 
 C(Fragment=1)         0.51632  -0.49632   6.11636 
 H(Fragment=1)        -1.75336   1.77336   4.94326 
 H(Fragment=1)        -0.87056   0.89056   7.06253 
 H(Fragment=1)         0.89056  -0.87056   7.06253 
 H(Fragment=1)         1.77336  -1.75336   4.94326 
 C(Fragment=2)         5.27395   3.02395  -3.66128 
 C(Fragment=2)         4.24605   1.99605  -3.66128 
 C(Fragment=2)         5.75612   3.50612  -4.92359 
 C(Fragment=2)         3.76387   1.51387  -4.92359 
 C(Fragment=2)         5.26632   3.01632  -6.09636 
 C(Fragment=2)         4.25368   2.00368  -6.09636 
 C(Fragment=2)         5.75447   3.50447  -2.45332 
 C(Fragment=2)         5.27449   3.02449  -1.21403 
 C(Fragment=2)         3.76553   1.51553  -2.45332 
 C(Fragment=2)         4.24551   1.99551  -1.21403 
 H(Fragment=2)         6.52336   4.27336  -4.92326 
 H(Fragment=2)         6.52219   4.27219  -2.45393 
 H(Fragment=2)         2.99781   0.74781  -2.45393 
 H(Fragment=2)         2.99664   0.74664  -4.92326 
 H(Fragment=2)         3.87944   1.62944  -7.04253 
 H(Fragment=2)         5.64056   3.39056  -7.04253 
 C(Fragment=2)         5.75482   3.50482   0.01 
 C(Fragment=2)         5.27449   3.02449   1.23403 
 C(Fragment=2)         3.76518   1.51518   0.01 
 C(Fragment=2)         4.24551   1.99551   1.23403 
 H(Fragment=2)         6.52247   4.27247   0.01 
 H(Fragment=2)         2.99753   0.74753   0.01 
 C(Fragment=2)         5.75447   3.50447   2.47332 
 C(Fragment=2)         5.27395   3.02395   3.68128 
 C(Fragment=2)         3.76553   1.51553   2.47332 
 C(Fragment=2)         4.24605   1.99605   3.68128 
 H(Fragment=2)         6.52219   4.27219   2.47393 
 H(Fragment=2)         2.99781   0.74781   2.47393 
 C(Fragment=2)         5.75612   3.50612   4.94359 
 C(Fragment=2)         5.26632   3.01632   6.11636 
 C(Fragment=2)         3.76388   1.51388   4.94359 
 C(Fragment=2)         4.25368   2.00368   6.11636 
 H(Fragment=2)         6.52336   4.27336   4.94326 
 H(Fragment=2)         5.64056   3.39056   7.06253 
 H(Fragment=2)         3.87944   1.62944   7.06253 
 H(Fragment=2)         2.99664   0.74664   4.94326 
 
 ITRead=  0  0  0  0  0  0  0  0  0  0  0  0  0  0  0  0  0  0  0  0
 ITRead=  0  0  0  0  0  0  0  0  0  0  0  0  0  0  0  0  0  0  0  0
 ITRead=  0  0  0  0  0  0  0  0  0  0  0  0  0  0  0  0  0  0  0  0
 ITRead=  0  0  0  0  0  0  0  0  0  0  0  0
 MicOpt= -1 -1 -1 -1 -1 -1 -1 -1 -1 -1 -1 -1 -1 -1 -1 -1 -1 -1 -1 -1
 MicOpt= -1 -1 -1 -1 -1 -1 -1 -1 -1 -1 -1 -1 -1 -1 -1 -1 -1 -1 -1 -1
 MicOpt= -1 -1 -1 -1 -1 -1 -1 -1 -1 -1 -1 -1 -1 -1 -1 -1 -1 -1 -1 -1
 MicOpt= -1 -1 -1 -1 -1 -1 -1 -1 -1 -1 -1 -1
 NAtoms=     72 NQM=       72 NQMF=       0 NMMI=      0 NMMIF=      0
                NMic=       0 NMicF=      0.
                    Isotopes and Nuclear Properties:
 (Nuclear quadrupole moments (NQMom) in fm**2, nuclear magnetic moments (NMagM)
  in nuclear magnetons)

  Atom         1           2           3           4           5           6           7           8           9          10
 IAtWgt=          12          12          12          12          12          12          12          12          12          12
 AtmWgt=  12.0000000  12.0000000  12.0000000  12.0000000  12.0000000  12.0000000  12.0000000  12.0000000  12.0000000  12.0000000
 NucSpn=           0           0           0           0           0           0           0           0           0           0
 AtZEff=   0.0000000   0.0000000   0.0000000   0.0000000   0.0000000   0.0000000   0.0000000   0.0000000   0.0000000   0.0000000
 NQMom=    0.0000000   0.0000000   0.0000000   0.0000000   0.0000000   0.0000000   0.0000000   0.0000000   0.0000000   0.0000000
 NMagM=    0.0000000   0.0000000   0.0000000   0.0000000   0.0000000   0.0000000   0.0000000   0.0000000   0.0000000   0.0000000
 AtZNuc=   6.0000000   6.0000000   6.0000000   6.0000000   6.0000000   6.0000000   6.0000000   6.0000000   6.0000000   6.0000000

  Atom        11          12          13          14          15          16          17          18          19          20
 IAtWgt=           1           1           1           1           1           1          12          12          12          12
 AtmWgt=   1.0078250   1.0078250   1.0078250   1.0078250   1.0078250   1.0078250  12.0000000  12.0000000  12.0000000  12.0000000
 NucSpn=           1           1           1           1           1           1           0           0           0           0
 AtZEff=   0.0000000   0.0000000   0.0000000   0.0000000   0.0000000   0.0000000   0.0000000   0.0000000   0.0000000   0.0000000
 NQMom=    0.0000000   0.0000000   0.0000000   0.0000000   0.0000000   0.0000000   0.0000000   0.0000000   0.0000000   0.0000000
 NMagM=    2.7928460   2.7928460   2.7928460   2.7928460   2.7928460   2.7928460   0.0000000   0.0000000   0.0000000   0.0000000
 AtZNuc=   1.0000000   1.0000000   1.0000000   1.0000000   1.0000000   1.0000000   6.0000000   6.0000000   6.0000000   6.0000000

  Atom        21          22          23          24          25          26          27          28          29          30
 IAtWgt=           1           1          12          12          12          12           1           1          12          12
 AtmWgt=   1.0078250   1.0078250  12.0000000  12.0000000  12.0000000  12.0000000   1.0078250   1.0078250  12.0000000  12.0000000
 NucSpn=           1           1           0           0           0           0           1           1           0           0
 AtZEff=   0.0000000   0.0000000   0.0000000   0.0000000   0.0000000   0.0000000   0.0000000   0.0000000   0.0000000   0.0000000
 NQMom=    0.0000000   0.0000000   0.0000000   0.0000000   0.0000000   0.0000000   0.0000000   0.0000000   0.0000000   0.0000000
 NMagM=    2.7928460   2.7928460   0.0000000   0.0000000   0.0000000   0.0000000   2.7928460   2.7928460   0.0000000   0.0000000
 AtZNuc=   1.0000000   1.0000000   6.0000000   6.0000000   6.0000000   6.0000000   1.0000000   1.0000000   6.0000000   6.0000000

  Atom        31          32          33          34          35          36          37          38          39          40
 IAtWgt=          12          12           1           1           1           1          12          12          12          12
 AtmWgt=  12.0000000  12.0000000   1.0078250   1.0078250   1.0078250   1.0078250  12.0000000  12.0000000  12.0000000  12.0000000
 NucSpn=           0           0           1           1           1           1           0           0           0           0
 AtZEff=   0.0000000   0.0000000   0.0000000   0.0000000   0.0000000   0.0000000   0.0000000   0.0000000   0.0000000   0.0000000
 NQMom=    0.0000000   0.0000000   0.0000000   0.0000000   0.0000000   0.0000000   0.0000000   0.0000000   0.0000000   0.0000000
 NMagM=    0.0000000   0.0000000   2.7928460   2.7928460   2.7928460   2.7928460   0.0000000   0.0000000   0.0000000   0.0000000
 AtZNuc=   6.0000000   6.0000000   1.0000000   1.0000000   1.0000000   1.0000000   6.0000000   6.0000000   6.0000000   6.0000000

  Atom        41          42          43          44          45          46          47          48          49          50
 IAtWgt=          12          12          12          12          12          12           1           1           1           1
 AtmWgt=  12.0000000  12.0000000  12.0000000  12.0000000  12.0000000  12.0000000   1.0078250   1.0078250   1.0078250   1.0078250
 NucSpn=           0           0           0           0           0           0           1           1           1           1
 AtZEff=   0.0000000   0.0000000   0.0000000   0.0000000   0.0000000   0.0000000   0.0000000   0.0000000   0.0000000   0.0000000
 NQMom=    0.0000000   0.0000000   0.0000000   0.0000000   0.0000000   0.0000000   0.0000000   0.0000000   0.0000000   0.0000000
 NMagM=    0.0000000   0.0000000   0.0000000   0.0000000   0.0000000   0.0000000   2.7928460   2.7928460   2.7928460   2.7928460
 AtZNuc=   6.0000000   6.0000000   6.0000000   6.0000000   6.0000000   6.0000000   1.0000000   1.0000000   1.0000000   1.0000000

  Atom        51          52          53          54          55          56          57          58          59          60
 IAtWgt=           1           1          12          12          12          12           1           1          12          12
 AtmWgt=   1.0078250   1.0078250  12.0000000  12.0000000  12.0000000  12.0000000   1.0078250   1.0078250  12.0000000  12.0000000
 NucSpn=           1           1           0           0           0           0           1           1           0           0
 AtZEff=   0.0000000   0.0000000   0.0000000   0.0000000   0.0000000   0.0000000   0.0000000   0.0000000   0.0000000   0.0000000
 NQMom=    0.0000000   0.0000000   0.0000000   0.0000000   0.0000000   0.0000000   0.0000000   0.0000000   0.0000000   0.0000000
 NMagM=    2.7928460   2.7928460   0.0000000   0.0000000   0.0000000   0.0000000   2.7928460   2.7928460   0.0000000   0.0000000
 AtZNuc=   1.0000000   1.0000000   6.0000000   6.0000000   6.0000000   6.0000000   1.0000000   1.0000000   6.0000000   6.0000000

  Atom        61          62          63          64          65          66          67          68          69          70
 IAtWgt=          12          12           1           1          12          12          12          12           1           1
 AtmWgt=  12.0000000  12.0000000   1.0078250   1.0078250  12.0000000  12.0000000  12.0000000  12.0000000   1.0078250   1.0078250
 NucSpn=           0           0           1           1           0           0           0           0           1           1
 AtZEff=   0.0000000   0.0000000   0.0000000   0.0000000   0.0000000   0.0000000   0.0000000   0.0000000   0.0000000   0.0000000
 NQMom=    0.0000000   0.0000000   0.0000000   0.0000000   0.0000000   0.0000000   0.0000000   0.0000000   0.0000000   0.0000000
 NMagM=    0.0000000   0.0000000   2.7928460   2.7928460   0.0000000   0.0000000   0.0000000   0.0000000   2.7928460   2.7928460
 AtZNuc=   6.0000000   6.0000000   1.0000000   1.0000000   6.0000000   6.0000000   6.0000000   6.0000000   1.0000000   1.0000000

  Atom        71          72
 IAtWgt=           1           1
 AtmWgt=   1.0078250   1.0078250
 NucSpn=           1           1
 AtZEff=   0.0000000   0.0000000
 NQMom=    0.0000000   0.0000000
 NMagM=    2.7928460   2.7928460
 AtZNuc=   1.0000000   1.0000000
 Leave Link  101 at Wed Sep 27 16:57:54 2023, MaxMem=  3221225472 cpu:               0.9 elap:               0.1
 (Enter /home/center/opt/aarch64/apps/gaussian16/c01/g16/l202.exe)
 Stoichiometry    C44H28
 Framework group  CS[SG(C4H4),X(C40H24)]
 Deg. of freedom   109
 Full point group                 CS      NOp   2
 Largest Abelian subgroup         CS      NOp   2
 Largest concise Abelian subgroup CS      NOp   2
                         Standard orientation:                         
 ---------------------------------------------------------------------
 Center     Atomic      Atomic             Coordinates (Angstroms)
 Number     Number       Type             X           Y           Z
 ---------------------------------------------------------------------
      1          6           0        1.522327   -2.563262    3.671276
      2          6           0        0.068663   -2.563262    3.671276
      3          6           0        2.204228   -2.563262    4.933593
      4          6           0       -0.613238   -2.563262    4.933593
      5          6           0        1.511542   -2.563262    6.106357
      6          6           0        0.079448   -2.563262    6.106357
      7          6           0        2.201886   -2.563262    2.463318
      8          6           0        1.523092   -2.563262    1.224029
      9          6           0       -0.610896   -2.563262    2.463317
     10          6           0        0.067899   -2.563262    1.224029
     11          1           0        3.289257   -2.563262    4.933260
     12          1           0        3.287603   -2.563262    2.463929
     13          1           0       -1.696612   -2.563262    2.463929
     14          1           0       -1.698267   -2.563262    4.933260
     15          1           0       -0.449800   -2.563262    7.052528
     16          1           0        2.040790   -2.563262    7.052528
     17          6           0        2.202381   -2.563262    0.000000
     18          6           0        1.523092   -2.563262   -1.224029
     19          6           0       -0.611391   -2.563262    0.000000
     20          6           0        0.067899   -2.563262   -1.224029
     21          1           0        3.288004   -2.563262    0.000000
     22          1           0       -1.697012   -2.563262    0.000000
     23          6           0        2.201886   -2.563262   -2.463318
     24          6           0        1.522327   -2.563262   -3.671276
     25          6           0       -0.610896   -2.563262   -2.463317
     26          6           0        0.068663   -2.563262   -3.671276
     27          1           0        3.287603   -2.563262   -2.463929
     28          1           0       -1.696612   -2.563262   -2.463929
     29          6           0        2.204228   -2.563262   -4.933593
     30          6           0        1.511542   -2.563262   -6.106357
     31          6           0       -0.613238   -2.563262   -4.933593
     32          6           0        0.079448   -2.563262   -6.106357
     33          1           0        3.289257   -2.563262   -4.933260
     34          1           0        2.040790   -2.563262   -7.052528
     35          1           0       -0.449800   -2.563262   -7.052528
     36          1           0       -1.698267   -2.563262   -4.933260
     37          6           0       -0.795495    3.290094    3.671276
     38          6           0       -0.795495    1.836430    3.671276
     39          6           0       -0.795495    3.971995    4.933593
     40          6           0       -0.795495    1.154529    4.933593
     41          6           0       -0.795495    3.279309    6.106357
     42          6           0       -0.795495    1.847215    6.106357
     43          6           0       -0.795495    3.969653    2.463318
     44          6           0       -0.795495    3.290859    1.224029
     45          6           0       -0.795495    1.156871    2.463317
     46          6           0       -0.795495    1.835665    1.224029
     47          1           0       -0.795495    5.057024    4.933260
     48          1           0       -0.795495    5.055370    2.463929
     49          1           0       -0.795495    0.071155    2.463929
     50          1           0       -0.795495    0.069500    4.933260
     51          1           0       -0.795495    1.317967    7.052528
     52          1           0       -0.795495    3.808557    7.052528
     53          6           0       -0.795495    3.970148    0.000000
     54          6           0       -0.795495    3.290859   -1.224029
     55          6           0       -0.795495    1.156376    0.000000
     56          6           0       -0.795495    1.835665   -1.224029
     57          1           0       -0.795495    5.055771    0.000000
     58          1           0       -0.795495    0.070755    0.000000
     59          6           0       -0.795495    3.969653   -2.463318
     60          6           0       -0.795495    3.290094   -3.671276
     61          6           0       -0.795495    1.156871   -2.463317
     62          6           0       -0.795495    1.836430   -3.671276
     63          1           0       -0.795495    5.055370   -2.463929
     64          1           0       -0.795495    0.071155   -2.463929
     65          6           0       -0.795495    3.971995   -4.933593
     66          6           0       -0.795495    3.279309   -6.106357
     67          6           0       -0.795495    1.154529   -4.933593
     68          6           0       -0.795495    1.847215   -6.106357
     69          1           0       -0.795495    5.057024   -4.933260
     70          1           0       -0.795495    3.808557   -7.052528
     71          1           0       -0.795495    1.317967   -7.052528
     72          1           0       -0.795495    0.069500   -4.933260
 ---------------------------------------------------------------------
 Rotational constants (GHZ):           0.1059397           0.0563744           0.0389616
 Leave Link  202 at Wed Sep 27 16:57:56 2023, MaxMem=  3221225472 cpu:               0.8 elap:               0.1
 (Enter /home/center/opt/aarch64/apps/gaussian16/c01/g16/l122.exe)
 Counterpoise: doing full-system calculation.
 Leave Link  122 at Wed Sep 27 16:57:58 2023, MaxMem=  3221225472 cpu:               0.4 elap:               0.0
 (Enter /home/center/opt/aarch64/apps/gaussian16/c01/g16/l301.exe)
 Standard basis: 6-311G(d,p) (5D, 7F)
 Ernie: Thresh=  0.10000D-02 Tol=  0.10000D-05 Strict=F.
 There are   528 symmetry adapted cartesian basis functions of A'  symmetry.
 There are   476 symmetry adapted cartesian basis functions of A"  symmetry.
 There are   504 symmetry adapted basis functions of A'  symmetry.
 There are   456 symmetry adapted basis functions of A"  symmetry.
   960 basis functions,  1632 primitive gaussians,  1004 cartesian basis functions
   146 alpha electrons      146 beta electrons
       nuclear repulsion energy      4617.8587378669 Hartrees.
 IExCor=  402 DFT=T Ex+Corr=B3LYP ExCW=0 ScaHFX=  0.200000
 ScaDFX=  0.800000  0.720000  1.000000  0.810000 ScalE2=  1.000000  1.000000
 IRadAn=      5 IRanWt=     -1 IRanGd=            0 ICorTp=0 IEmpDi=131
 NAtoms=   72 NActive=   72 NUniq=   40 SFac= 3.24D+00 NAtFMM=   60 NAOKFM=T Big=F
 Integral buffers will be    131072 words long.
 Raffenetti 2 integral format.
 Two-electron integral symmetry is turned on.
 R6Disp:  Grimme-D3 Dispersion energy=       -0.0805226106 Hartrees.
 Nuclear repulsion after empirical dispersion term =     4617.7782152562 Hartrees.
 Leave Link  301 at Wed Sep 27 16:58:01 2023, MaxMem=  3221225472 cpu:               2.0 elap:               0.1
 (Enter /home/center/opt/aarch64/apps/gaussian16/c01/g16/l302.exe)
 NPDir=0 NMtPBC=     1 NCelOv=     1 NCel=       1 NClECP=     1 NCelD=      1
         NCelK=      1 NCelE2=     1 NClLst=     1 CellRange=     0.0.
 One-electron integrals computed using PRISM.
 One-electron integral symmetry used in STVInt
 NBasis=   960 RedAO= T EigKep=  3.73D-05  NBF=   504   456
 NBsUse=   960 1.00D-06 EigRej= -1.00D+00 NBFU=   504   456
 Precomputing XC quadrature grid using
 IXCGrd= 4 IRadAn=           5 IRanWt=          -1 IRanGd=           0 AccXCQ= 0.00D+00.
 Generated NRdTot=       0 NPtTot=           0 NUsed=           0 NTot=          32
 NSgBfM=   989   989   989   989   989 MxSgAt=    72 MxSgA2=    72.
 Leave Link  302 at Wed Sep 27 16:58:05 2023, MaxMem=  3221225472 cpu:              66.2 elap:               2.1
 (Enter /home/center/opt/aarch64/apps/gaussian16/c01/g16/l303.exe)
 DipDrv:  MaxL=1.
 Leave Link  303 at Wed Sep 27 16:58:08 2023, MaxMem=  3221225472 cpu:              15.3 elap:               0.5
 (Enter /home/center/opt/aarch64/apps/gaussian16/c01/g16/l401.exe)
 ExpMin= 1.03D-01 ExpMax= 4.56D+03 ExpMxC= 6.82D+02 IAcc=3 IRadAn=         5 AccDes= 0.00D+00
 Harris functional with IExCor=  402 and IRadAn=       5 diagonalized for initial guess.
 HarFok:  IExCor=  402 AccDes= 0.00D+00 IRadAn=         5 IDoV= 1 UseB2=F ITyADJ=14
 ICtDFT=  3500011 ScaDFX=  1.000000  1.000000  1.000000  1.000000
 FoFCou: FMM=F IPFlag=           0 FMFlag=      100000 FMFlg1=        2000
         NFxFlg=           0 DoJE=T BraDBF=F KetDBF=T FulRan=T
         wScrn=  0.000000 ICntrl=       500 IOpCl=  0 I1Cent=   200000004 NGrid=           0
         NMat0=    1 NMatS0=      1 NMatT0=    0 NMatD0=    1 NMtDS0=    0 NMtDT0=    0
 Petite list used in FoFCou.
 Harris En= -1694.13744025742    
 JPrj=0 DoOrth=F DoCkMO=F.
 Initial guess orbital symmetries:
       Occupied  (A") (A') (A") (A') (A") (A') (A') (A") (A") (A')
                 (A") (A') (A") (A') (A") (A') (A") (A') (A') (A")
                 (A') (A") (A') (A") (A') (A') (A') (A') (A") (A')
                 (A") (A') (A") (A') (A") (A') (A") (A') (A") (A')
                 (A") (A') (A') (A") (A') (A') (A") (A") (A') (A')
                 (A") (A") (A') (A') (A') (A') (A") (A") (A') (A')
                 (A") (A") (A") (A") (A') (A') (A') (A') (A") (A")
                 (A") (A") (A') (A') (A") (A") (A') (A') (A') (A')
                 (A') (A') (A") (A") (A") (A") (A') (A") (A") (A')
                 (A') (A') (A") (A") (A') (A') (A') (A') (A") (A")
                 (A') (A') (A") (A") (A") (A") (A') (A') (A') (A')
                 (A") (A") (A') (A') (A") (A") (A') (A') (A") (A")
                 (A") (A") (A') (A') (A') (A') (A") (A") (A') (A')
                 (A") (A") (A') (A') (A") (A") (A') (A') (A') (A')
                 (A") (A") (A") (A") (A') (A')
       Virtual   (A') (A') (A") (A") (A") (A") (A') (A') (A') (A')
                 (A") (A") (A') (A') (A") (A") (A') (A") (A') (A')
                 (A') (A') (A") (A') (A") (A') (A") (A") (A') (A')
                 (A") (A") (A') (A") (A') (A") (A') (A") (A') (A')
                 (A") (A") (A') (A") (A') (A') (A") (A') (A') (A')
                 (A') (A") (A') (A") (A') (A') (A") (A") (A') (A')
                 (A") (A") (A") (A") (A') (A') (A") (A") (A") (A')
                 (A') (A") (A') (A') (A") (A') (A") (A") (A') (A")
                 (A') (A') (A') (A") (A') (A") (A') (A') (A") (A')
                 (A") (A') (A") (A') (A") (A") (A') (A") (A') (A")
                 (A') (A') (A") (A") (A") (A') (A') (A') (A") (A')
                 (A') (A') (A") (A') (A") (A') (A') (A") (A') (A")
                 (A") (A") (A') (A') (A") (A') (A") (A") (A') (A")
                 (A') (A") (A') (A") (A") (A') (A') (A") (A') (A")
                 (A') (A') (A") (A') (A") (A') (A') (A') (A') (A')
                 (A") (A") (A") (A') (A") (A') (A') (A") (A") (A')
                 (A") (A') (A') (A") (A") (A") (A') (A') (A') (A")
                 (A') (A") (A') (A") (A') (A') (A") (A") (A') (A')
                 (A") (A") (A') (A") (A') (A") (A') (A') (A") (A')
                 (A') (A") (A') (A") (A") (A') (A') (A") (A') (A")
                 (A') (A") (A') (A") (A') (A") (A') (A') (A") (A')
                 (A") (A') (A") (A") (A') (A") (A') (A") (A") (A')
                 (A") (A') (A") (A') (A") (A') (A') (A") (A') (A")
                 (A') (A') (A') (A") (A') (A") (A') (A") (A") (A')
                 (A') (A") (A") (A') (A") (A') (A") (A') (A") (A")
                 (A') (A") (A') (A') (A") (A') (A') (A") (A') (A")
                 (A') (A') (A") (A") (A') (A") (A") (A') (A") (A')
                 (A") (A") (A") (A') (A') (A') (A') (A") (A") (A')
                 (A") (A") (A') (A') (A') (A") (A') (A") (A') (A")
                 (A') (A') (A') (A") (A") (A") (A") (A") (A") (A')
                 (A") (A') (A') (A') (A') (A') (A") (A') (A') (A")
                 (A") (A") (A') (A") (A") (A") (A') (A') (A') (A')
                 (A") (A') (A") (A') (A') (A") (A') (A") (A") (A')
                 (A") (A") (A') (A") (A') (A') (A") (A') (A") (A')
                 (A") (A') (A') (A") (A') (A") (A") (A') (A') (A")
                 (A') (A') (A") (A") (A') (A') (A') (A') (A") (A")
                 (A') (A') (A') (A") (A") (A') (A") (A") (A") (A")
                 (A") (A') (A') (A") (A") (A') (A") (A') (A') (A')
                 (A") (A') (A') (A') (A") (A') (A") (A') (A') (A")
                 (A") (A') (A') (A') (A") (A") (A") (A') (A") (A')
                 (A") (A') (A") (A') (A") (A') (A') (A") (A") (A')
                 (A") (A') (A') (A') (A') (A") (A') (A") (A") (A')
                 (A') (A') (A') (A") (A") (A') (A") (A') (A') (A")
                 (A") (A") (A") (A') (A") (A") (A') (A") (A') (A")
                 (A') (A") (A') (A") (A') (A") (A') (A") (A') (A")
                 (A') (A') (A') (A") (A") (A') (A") (A') (A') (A")
                 (A') (A") (A') (A") (A') (A") (A") (A') (A") (A')
                 (A") (A') (A") (A') (A") (A') (A") (A') (A") (A')
                 (A") (A') (A') (A') (A") (A') (A") (A") (A") (A')
                 (A") (A") (A') (A") (A") (A") (A") (A') (A") (A')
                 (A') (A") (A') (A') (A") (A') (A') (A') (A") (A")
                 (A') (A') (A') (A') (A") (A") (A") (A') (A") (A')
                 (A") (A") (A') (A') (A") (A") (A') (A') (A") (A')
                 (A') (A") (A') (A") (A") (A') (A') (A") (A") (A')
                 (A") (A") (A') (A') (A') (A") (A") (A") (A') (A")
                 (A') (A") (A') (A") (A') (A") (A") (A') (A') (A')
                 (A") (A") (A') (A') (A') (A') (A") (A") (A') (A")
                 (A') (A") (A") (A') (A") (A') (A") (A') (A") (A')
                 (A') (A') (A") (A') (A") (A") (A') (A') (A') (A")
                 (A') (A') (A") (A') (A") (A') (A') (A") (A') (A")
                 (A') (A") (A') (A") (A') (A") (A") (A') (A") (A')
                 (A") (A") (A') (A') (A') (A") (A') (A") (A") (A')
                 (A") (A") (A') (A') (A") (A') (A") (A") (A') (A')
                 (A') (A') (A') (A') (A") (A") (A") (A') (A") (A")
                 (A') (A") (A") (A') (A") (A') (A') (A") (A') (A")
                 (A') (A') (A') (A') (A") (A') (A") (A') (A") (A')
                 (A') (A") (A") (A") (A') (A") (A') (A') (A") (A')
                 (A') (A") (A") (A') (A") (A') (A") (A") (A') (A')
                 (A") (A') (A') (A") (A') (A") (A") (A') (A") (A")
                 (A') (A') (A") (A') (A') (A") (A') (A") (A") (A')
                 (A") (A') (A') (A") (A') (A") (A') (A") (A') (A")
                 (A") (A') (A") (A") (A') (A') (A') (A') (A") (A")
                 (A') (A') (A") (A") (A') (A") (A') (A') (A') (A")
                 (A') (A") (A') (A") (A") (A') (A") (A') (A') (A')
                 (A") (A") (A') (A") (A') (A') (A") (A') (A') (A')
                 (A") (A') (A") (A") (A') (A") (A') (A') (A") (A")
                 (A") (A') (A") (A') (A") (A") (A') (A") (A') (A")
                 (A') (A') (A") (A") (A') (A') (A') (A') (A") (A")
                 (A") (A") (A') (A') (A") (A') (A") (A') (A') (A')
                 (A") (A") (A") (A") (A') (A') (A') (A') (A") (A")
                 (A') (A') (A") (A") (A') (A") (A') (A') (A") (A')
                 (A') (A") (A') (A")
 The electronic state of the initial guess is 1-A'.
 Leave Link  401 at Wed Sep 27 16:58:13 2023, MaxMem=  3221225472 cpu:             105.9 elap:               2.7
 (Enter /home/center/opt/aarch64/apps/gaussian16/c01/g16/l502.exe)
 Integral symmetry usage will be decided dynamically.
 Closed shell SCF:
 Using DIIS extrapolation, IDIIS=  1040.
 NGot=  3221225472 LenX=  3219153746 LenY=  3218144726
 Requested convergence on RMS density matrix=1.00D-08 within 128 cycles.
 Requested convergence on MAX density matrix=1.00D-06.
 Requested convergence on             energy=1.00D-06.
 No special actions if energy rises.
 Fock matrices will be formed incrementally for  20 cycles.
 Integral accuracy reduced to 1.0D-05 until final iterations.

 Cycle   1  Pass 0  IDiag  1:
 FoFJK:  IHMeth= 1 ICntrl=       0 DoSepK=F KAlg= 0 I1Cent=           0 FoldK=F
 IRaf= 550000000 NMat=       1 IRICut=       1 DoRegI=T DoRafI=F ISym2E= 1 IDoP0=0 IntGTp=1.
 FoFCou: FMM=F IPFlag=           0 FMFlag=      100000 FMFlg1=        2000
         NFxFlg=           0 DoJE=F BraDBF=F KetDBF=F FulRan=T
         wScrn=  0.000000 ICntrl=         0 IOpCl=  0 I1Cent=           0 NGrid=           0
         NMat0=    1 NMatS0=      1 NMatT0=    0 NMatD0=    1 NMtDS0=    0 NMtDT0=    0
 Petite list used in FoFCou.
 E= -1693.17020861712    
 DIIS: error= 4.61D-02 at cycle   1 NSaved=   1.
 NSaved= 1 IEnMin= 1 EnMin= -1693.17020861712     IErMin= 1 ErrMin= 4.61D-02
 ErrMax= 4.61D-02  0.00D+00 EMaxC= 1.00D-01 BMatC= 9.00D-01 BMatP= 9.00D-01
 IDIUse=3 WtCom= 5.39D-01 WtEn= 4.61D-01
 Coeff-Com:  0.100D+01
 Coeff-En:   0.100D+01
 Coeff:      0.100D+01
 Gap=     0.060 Goal=   None    Shift=    0.000
 GapD=    0.060 DampG=0.500 DampE=0.500 DampFc=0.2500 IDamp=-1.
 Damping current iteration by 2.50D-01
 RMSDP=1.74D-03 MaxDP=8.40D-02              OVMax= 1.57D-01

 Cycle   2  Pass 0  IDiag  1:
 RMSU=  4.21D-04    CP:  9.82D-01
 E= -1693.47944110239     Delta-E=       -0.309232485273 Rises=F Damp=T
 DIIS: error= 2.73D-02 at cycle   2 NSaved=   2.
 NSaved= 2 IEnMin= 2 EnMin= -1693.47944110239     IErMin= 2 ErrMin= 2.73D-02
 ErrMax= 2.73D-02  0.00D+00 EMaxC= 1.00D-01 BMatC= 2.99D-01 BMatP= 9.00D-01
 IDIUse=3 WtCom= 7.27D-01 WtEn= 2.73D-01
 Coeff-Com: -0.121D+01 0.221D+01
 Coeff-En:   0.000D+00 0.100D+01
 Coeff:     -0.878D+00 0.188D+01
 Gap=     0.063 Goal=   None    Shift=    0.000
 RMSDP=7.67D-04 MaxDP=3.37D-02 DE=-3.09D-01 OVMax= 8.78D-02

 Cycle   3  Pass 0  IDiag  1:
 RMSU=  4.96D-04    CP:  9.57D-01  2.34D+00
 E= -1694.04489652211     Delta-E=       -0.565455419719 Rises=F Damp=F
 DIIS: error= 4.87D-03 at cycle   3 NSaved=   3.
 NSaved= 3 IEnMin= 3 EnMin= -1694.04489652211     IErMin= 3 ErrMin= 4.87D-03
 ErrMax= 4.87D-03  0.00D+00 EMaxC= 1.00D-01 BMatC= 1.21D-02 BMatP= 2.99D-01
 IDIUse=3 WtCom= 9.51D-01 WtEn= 4.87D-02
 Coeff-Com: -0.240D+00 0.504D+00 0.736D+00
 Coeff-En:   0.000D+00 0.000D+00 0.100D+01
 Coeff:     -0.228D+00 0.480D+00 0.749D+00
 Gap=     0.068 Goal=   None    Shift=    0.000
 RMSDP=2.44D-04 MaxDP=1.29D-02 DE=-5.65D-01 OVMax= 8.99D-02

 Cycle   4  Pass 0  IDiag  1:
 RMSU=  2.19D-04    CP:  9.59D-01  2.25D+00  8.00D-01
 E= -1694.04077771489     Delta-E=        0.004118807225 Rises=F Damp=F
 DIIS: error= 7.06D-03 at cycle   4 NSaved=   4.
 NSaved= 4 IEnMin= 3 EnMin= -1694.04489652211     IErMin= 3 ErrMin= 4.87D-03
 ErrMax= 7.06D-03  0.00D+00 EMaxC= 1.00D-01 BMatC= 1.40D-02 BMatP= 1.21D-02
 IDIUse=3 WtCom= 1.06D-01 WtEn= 8.94D-01
 Coeff-Com: -0.312D-01 0.994D-01 0.526D+00 0.405D+00
 Coeff-En:   0.000D+00 0.000D+00 0.559D+00 0.441D+00
 Coeff:     -0.332D-02 0.106D-01 0.556D+00 0.437D+00
 Gap=     0.065 Goal=   None    Shift=    0.000
 RMSDP=1.51D-04 MaxDP=8.73D-03 DE= 4.12D-03 OVMax= 7.31D-02

 Cycle   5  Pass 0  IDiag  1:
 RMSU=  8.11D-05    CP:  9.59D-01  2.23D+00  8.55D-01  4.33D-01
 E= -1694.05625091916     Delta-E=       -0.015473204277 Rises=F Damp=F
 DIIS: error= 2.25D-03 at cycle   5 NSaved=   5.
 NSaved= 5 IEnMin= 5 EnMin= -1694.05625091916     IErMin= 5 ErrMin= 2.25D-03
 ErrMax= 2.25D-03  0.00D+00 EMaxC= 1.00D-01 BMatC= 1.16D-03 BMatP= 1.21D-02
 IDIUse=3 WtCom= 9.77D-01 WtEn= 2.25D-02
 Coeff-Com: -0.168D-01 0.355D-01 0.240D+00 0.250D+00 0.491D+00
 Coeff-En:   0.000D+00 0.000D+00 0.000D+00 0.474D-01 0.953D+00
 Coeff:     -0.164D-01 0.347D-01 0.235D+00 0.245D+00 0.502D+00
 Gap=     0.065 Goal=   None    Shift=    0.000
 RMSDP=4.91D-05 MaxDP=2.81D-03 DE=-1.55D-02 OVMax= 2.39D-02

 Cycle   6  Pass 0  IDiag  1:
 RMSU=  2.36D-05    CP:  9.59D-01  2.25D+00  8.63D-01  5.28D-01  5.59D-01
 E= -1694.05736624176     Delta-E=       -0.001115322599 Rises=F Damp=F
 DIIS: error= 1.06D-03 at cycle   6 NSaved=   6.
 NSaved= 6 IEnMin= 6 EnMin= -1694.05736624176     IErMin= 6 ErrMin= 1.06D-03
 ErrMax= 1.06D-03  0.00D+00 EMaxC= 1.00D-01 BMatC= 2.21D-04 BMatP= 1.16D-03
 IDIUse=3 WtCom= 9.89D-01 WtEn= 1.06D-02
 Coeff-Com: -0.671D-02 0.975D-02 0.956D-01 0.117D+00 0.354D+00 0.430D+00
 Coeff-En:   0.000D+00 0.000D+00 0.000D+00 0.000D+00 0.156D+00 0.844D+00
 Coeff:     -0.664D-02 0.965D-02 0.946D-01 0.116D+00 0.352D+00 0.435D+00
 Gap=     0.065 Goal=   None    Shift=    0.000
 RMSDP=1.86D-05 MaxDP=1.30D-03 DE=-1.12D-03 OVMax= 1.03D-02

 Cycle   7  Pass 0  IDiag  1:
 RMSU=  9.19D-06    CP:  9.58D-01  2.26D+00  8.66D-01  5.10D-01  6.31D-01
                    CP:  3.88D-01
 E= -1694.05760778025     Delta-E=       -0.000241538488 Rises=F Damp=F
 DIIS: error= 3.03D-04 at cycle   7 NSaved=   7.
 NSaved= 7 IEnMin= 7 EnMin= -1694.05760778025     IErMin= 7 ErrMin= 3.03D-04
 ErrMax= 3.03D-04  0.00D+00 EMaxC= 1.00D-01 BMatC= 1.76D-05 BMatP= 2.21D-04
 IDIUse=3 WtCom= 9.97D-01 WtEn= 3.03D-03
 Coeff-Com: -0.286D-02 0.349D-02 0.513D-01 0.641D-01 0.209D+00 0.296D+00
 Coeff-Com:  0.379D+00
 Coeff-En:   0.000D+00 0.000D+00 0.000D+00 0.000D+00 0.000D+00 0.248D-01
 Coeff-En:   0.975D+00
 Coeff:     -0.285D-02 0.348D-02 0.511D-01 0.639D-01 0.208D+00 0.295D+00
 Coeff:      0.381D+00
 Gap=     0.065 Goal=   None    Shift=    0.000
 RMSDP=5.56D-06 MaxDP=2.65D-04 DE=-2.42D-04 OVMax= 2.22D-03

 Initial convergence to 1.0D-05 achieved.  Increase integral accuracy.
 Cycle   8  Pass 1  IDiag  1:
 E= -1694.05718437028     Delta-E=        0.000423409967 Rises=F Damp=F
 DIIS: error= 1.73D-03 at cycle   1 NSaved=   1.
 NSaved= 1 IEnMin= 1 EnMin= -1694.05718437028     IErMin= 1 ErrMin= 1.73D-03
 ErrMax= 1.73D-03  0.00D+00 EMaxC= 1.00D-01 BMatC= 6.15D-05 BMatP= 6.15D-05
 IDIUse=3 WtCom= 9.83D-01 WtEn= 1.73D-02
 Coeff-Com:  0.100D+01
 Coeff-En:   0.100D+01
 Coeff:      0.100D+01
 Gap=     0.065 Goal=   None    Shift=    0.000
 RMSDP=5.56D-06 MaxDP=2.65D-04 DE= 4.23D-04 OVMax= 2.81D-03

 Cycle   9  Pass 1  IDiag  1:
 RMSU=  5.11D-04    CP:  9.92D-01
 E= -1694.05724333105     Delta-E=       -0.000058960761 Rises=F Damp=F
 DIIS: error= 9.59D-05 at cycle   2 NSaved=   2.
 NSaved= 2 IEnMin= 2 EnMin= -1694.05724333105     IErMin= 2 ErrMin= 9.59D-05
 ErrMax= 9.59D-05  0.00D+00 EMaxC= 1.00D-01 BMatC= 2.76D-06 BMatP= 6.15D-05
 IDIUse=1 WtCom= 1.00D+00 WtEn= 0.00D+00
 Coeff-Com:  0.539D-01 0.946D+00
 Coeff:      0.539D-01 0.946D+00
 Gap=     0.065 Goal=   None    Shift=    0.000
 RMSDP=7.71D-06 MaxDP=3.00D-04 DE=-5.90D-05 OVMax= 2.61D-03

 Cycle  10  Pass 1  IDiag  1:
 RMSU=  5.91D-06    CP:  9.92D-01  1.01D+00
 E= -1694.05723046040     Delta-E=        0.000012870642 Rises=F Damp=F
 DIIS: error= 2.47D-04 at cycle   3 NSaved=   3.
 NSaved= 3 IEnMin= 2 EnMin= -1694.05724333105     IErMin= 2 ErrMin= 9.59D-05
 ErrMax= 2.47D-04  0.00D+00 EMaxC= 1.00D-01 BMatC= 1.31D-05 BMatP= 2.76D-06
 IDIUse=3 WtCom= 3.89D-01 WtEn= 6.11D-01
 Coeff-Com: -0.347D-02 0.690D+00 0.314D+00
 Coeff-En:   0.000D+00 0.772D+00 0.228D+00
 Coeff:     -0.135D-02 0.740D+00 0.261D+00
 Gap=     0.065 Goal=   None    Shift=    0.000
 RMSDP=3.42D-06 MaxDP=1.86D-04 DE= 1.29D-05 OVMax= 1.74D-03

 Cycle  11  Pass 1  IDiag  1:
 RMSU=  1.28D-06    CP:  9.92D-01  1.01D+00  4.64D-01
 E= -1694.05724609126     Delta-E=       -0.000015630862 Rises=F Damp=F
 DIIS: error= 3.55D-05 at cycle   4 NSaved=   4.
 NSaved= 4 IEnMin= 4 EnMin= -1694.05724609126     IErMin= 4 ErrMin= 3.55D-05
 ErrMax= 3.55D-05  0.00D+00 EMaxC= 1.00D-01 BMatC= 4.20D-07 BMatP= 2.76D-06
 IDIUse=1 WtCom= 1.00D+00 WtEn= 0.00D+00
 Coeff-Com: -0.363D-02 0.445D+00 0.140D+00 0.419D+00
 Coeff:     -0.363D-02 0.445D+00 0.140D+00 0.419D+00
 Gap=     0.065 Goal=   None    Shift=    0.000
 RMSDP=6.57D-07 MaxDP=3.25D-05 DE=-1.56D-05 OVMax= 1.53D-04

 Cycle  12  Pass 1  IDiag  1:
 RMSU=  4.17D-07    CP:  9.92D-01  1.01D+00  3.79D-01  9.80D-01
 E= -1694.05724653275     Delta-E=       -0.000000441484 Rises=F Damp=F
 DIIS: error= 4.97D-06 at cycle   5 NSaved=   5.
 NSaved= 5 IEnMin= 5 EnMin= -1694.05724653275     IErMin= 5 ErrMin= 4.97D-06
 ErrMax= 4.97D-06  0.00D+00 EMaxC= 1.00D-01 BMatC= 3.98D-09 BMatP= 4.20D-07
 IDIUse=1 WtCom= 1.00D+00 WtEn= 0.00D+00
 Coeff-Com: -0.211D-02 0.252D+00 0.772D-01 0.255D+00 0.417D+00
 Coeff:     -0.211D-02 0.252D+00 0.772D-01 0.255D+00 0.417D+00
 Gap=     0.065 Goal=   None    Shift=    0.000
 RMSDP=9.62D-08 MaxDP=4.40D-06 DE=-4.41D-07 OVMax= 4.06D-05

 Cycle  13  Pass 1  IDiag  1:
 RMSU=  8.84D-08    CP:  9.92D-01  1.01D+00  3.81D-01  9.88D-01  9.20D-01
 E= -1694.05724653733     Delta-E=       -0.000000004579 Rises=F Damp=F
 DIIS: error= 1.69D-06 at cycle   6 NSaved=   6.
 NSaved= 6 IEnMin= 6 EnMin= -1694.05724653733     IErMin= 6 ErrMin= 1.69D-06
 ErrMax= 1.69D-06  0.00D+00 EMaxC= 1.00D-01 BMatC= 5.56D-10 BMatP= 3.98D-09
 IDIUse=1 WtCom= 1.00D+00 WtEn= 0.00D+00
 Coeff-Com: -0.779D-03 0.910D-01 0.273D-01 0.976D-01 0.275D+00 0.510D+00
 Coeff:     -0.779D-03 0.910D-01 0.273D-01 0.976D-01 0.275D+00 0.510D+00
 Gap=     0.065 Goal=   None    Shift=    0.000
 RMSDP=2.82D-08 MaxDP=1.67D-06 DE=-4.58D-09 OVMax= 1.40D-05

 Cycle  14  Pass 1  IDiag  1:
 RMSU=  2.09D-08    CP:  9.92D-01  1.01D+00  3.82D-01  9.87D-01  9.46D-01
                    CP:  8.62D-01
 E= -1694.05724653794     Delta-E=       -0.000000000615 Rises=F Damp=F
 DIIS: error= 3.25D-07 at cycle   7 NSaved=   7.
 NSaved= 7 IEnMin= 7 EnMin= -1694.05724653794     IErMin= 7 ErrMin= 3.25D-07
 ErrMax= 3.25D-07  0.00D+00 EMaxC= 1.00D-01 BMatC= 1.86D-11 BMatP= 5.56D-10
 IDIUse=1 WtCom= 1.00D+00 WtEn= 0.00D+00
 Coeff-Com: -0.130D-03 0.146D-01 0.383D-02 0.186D-01 0.720D-01 0.204D+00
 Coeff-Com:  0.687D+00
 Coeff:     -0.130D-03 0.146D-01 0.383D-02 0.186D-01 0.720D-01 0.204D+00
 Coeff:      0.687D+00
 Gap=     0.065 Goal=   None    Shift=    0.000
 RMSDP=9.01D-09 MaxDP=3.90D-07 DE=-6.15D-10 OVMax= 3.41D-06

 SCF Done:  E(RB3LYP) =  -1694.05724654     A.U. after   14 cycles
            NFock= 14  Conv=0.90D-08     -V/T= 2.0044
 KE= 1.686714060097D+03 PE=-1.316607567491D+04 EE= 5.167526153018D+03
 Leave Link  502 at Wed Sep 27 16:59:50 2023, MaxMem=  3221225472 cpu:            3448.8 elap:              95.0
 (Enter /home/center/opt/aarch64/apps/gaussian16/c01/g16/l601.exe)
 Copying SCF densities to generalized density rwf, IOpCl= 0 IROHF=0.

 **********************************************************************

            Population analysis using the SCF Density.

 **********************************************************************

 Orbital symmetries:
       Occupied  (A") (A') (A') (A") (A") (A') (A") (A') (A') (A")
                 (A') (A') (A") (A') (A") (A') (A") (A') (A") (A')
                 (A") (A') (A") (A') (A") (A') (A') (A") (A') (A")
                 (A") (A') (A") (A') (A') (A") (A') (A") (A') (A')
                 (A") (A') (A") (A') (A') (A") (A') (A") (A') (A')
                 (A") (A") (A') (A') (A") (A') (A') (A") (A') (A')
                 (A") (A") (A") (A") (A') (A') (A') (A') (A") (A")
                 (A") (A') (A") (A") (A') (A') (A") (A') (A') (A')
                 (A') (A") (A") (A') (A") (A") (A') (A") (A') (A')
                 (A") (A') (A') (A") (A") (A') (A") (A") (A') (A')
                 (A") (A') (A') (A') (A') (A') (A") (A") (A") (A')
                 (A') (A') (A") (A") (A") (A") (A") (A') (A") (A')
                 (A') (A') (A') (A") (A') (A") (A') (A") (A") (A")
                 (A') (A") (A') (A') (A") (A') (A") (A') (A') (A')
                 (A") (A") (A") (A") (A') (A')
       Virtual   (A') (A') (A") (A") (A") (A") (A') (A') (A') (A")
                 (A') (A') (A") (A') (A") (A') (A') (A') (A") (A")
                 (A') (A') (A") (A") (A') (A") (A') (A") (A") (A')
                 (A") (A') (A") (A') (A') (A") (A") (A') (A") (A')
                 (A') (A') (A') (A") (A") (A') (A") (A') (A") (A")
                 (A') (A') (A') (A') (A') (A') (A") (A') (A") (A')
                 (A") (A") (A") (A") (A') (A') (A") (A") (A') (A")
                 (A') (A') (A") (A') (A") (A') (A") (A') (A") (A")
                 (A') (A') (A') (A') (A') (A") (A') (A") (A') (A")
                 (A") (A') (A') (A') (A") (A") (A") (A') (A') (A")
                 (A") (A') (A") (A') (A') (A") (A') (A") (A') (A")
                 (A") (A') (A") (A') (A') (A") (A") (A") (A') (A')
                 (A') (A") (A') (A') (A') (A') (A') (A") (A") (A")
                 (A') (A') (A') (A") (A') (A") (A') (A') (A") (A')
                 (A") (A') (A") (A') (A") (A") (A") (A') (A") (A')
                 (A") (A") (A') (A") (A') (A") (A') (A') (A') (A')
                 (A") (A") (A') (A") (A') (A') (A") (A') (A") (A")
                 (A') (A") (A') (A") (A') (A') (A') (A") (A") (A')
                 (A") (A') (A") (A') (A") (A') (A") (A') (A") (A")
                 (A') (A') (A") (A') (A") (A') (A") (A') (A") (A')
                 (A") (A') (A") (A') (A') (A") (A') (A') (A") (A')
                 (A') (A") (A") (A") (A') (A') (A') (A") (A") (A')
                 (A") (A") (A") (A') (A") (A') (A') (A') (A") (A')
                 (A') (A") (A") (A') (A') (A") (A") (A') (A') (A")
                 (A') (A") (A') (A") (A') (A") (A") (A') (A") (A')
                 (A") (A') (A") (A") (A') (A') (A") (A') (A") (A')
                 (A') (A") (A') (A") (A') (A') (A") (A') (A") (A")
                 (A') (A") (A') (A") (A") (A') (A') (A") (A") (A')
                 (A") (A') (A') (A') (A") (A") (A') (A") (A') (A")
                 (A") (A') (A") (A') (A") (A') (A') (A') (A") (A')
                 (A") (A") (A") (A") (A') (A") (A') (A') (A') (A')
                 (A") (A") (A') (A') (A") (A') (A") (A") (A') (A')
                 (A") (A') (A") (A') (A') (A") (A') (A") (A") (A")
                 (A') (A") (A') (A") (A') (A") (A') (A") (A') (A')
                 (A") (A') (A') (A') (A") (A") (A') (A') (A") (A")
                 (A') (A") (A') (A") (A') (A') (A') (A') (A') (A")
                 (A') (A") (A") (A') (A") (A') (A") (A") (A") (A")
                 (A') (A") (A") (A') (A') (A") (A') (A") (A') (A")
                 (A') (A') (A') (A") (A') (A") (A') (A') (A") (A')
                 (A") (A') (A') (A') (A") (A") (A") (A') (A') (A")
                 (A') (A") (A") (A') (A") (A') (A') (A") (A') (A")
                 (A") (A') (A') (A") (A') (A') (A") (A') (A") (A')
                 (A') (A') (A") (A') (A') (A") (A') (A") (A") (A')
                 (A") (A") (A") (A') (A") (A") (A') (A') (A") (A')
                 (A') (A") (A") (A') (A") (A") (A') (A") (A') (A')
                 (A") (A') (A") (A') (A") (A') (A') (A") (A") (A')
                 (A") (A') (A") (A') (A") (A') (A") (A') (A') (A')
                 (A") (A") (A") (A') (A") (A") (A') (A") (A') (A')
                 (A') (A") (A") (A') (A') (A') (A") (A") (A') (A")
                 (A") (A") (A") (A') (A") (A") (A") (A') (A") (A')
                 (A') (A") (A') (A') (A") (A') (A') (A') (A") (A")
                 (A') (A') (A") (A') (A') (A") (A') (A") (A") (A')
                 (A") (A') (A") (A") (A') (A') (A') (A") (A") (A")
                 (A') (A") (A') (A") (A') (A") (A") (A') (A') (A')
                 (A") (A') (A") (A') (A") (A') (A") (A") (A') (A")
                 (A') (A") (A") (A') (A') (A') (A") (A") (A') (A")
                 (A') (A') (A') (A") (A") (A') (A") (A') (A") (A')
                 (A") (A') (A') (A') (A") (A') (A') (A') (A") (A")
                 (A") (A') (A") (A') (A") (A') (A") (A") (A') (A")
                 (A') (A") (A') (A") (A') (A") (A') (A') (A') (A")
                 (A') (A') (A") (A') (A") (A') (A") (A") (A') (A")
                 (A') (A') (A') (A") (A') (A') (A') (A") (A") (A')
                 (A") (A') (A") (A") (A") (A') (A') (A") (A") (A")
                 (A') (A') (A') (A') (A') (A") (A') (A') (A") (A")
                 (A") (A') (A") (A") (A') (A") (A') (A") (A') (A')
                 (A") (A') (A') (A") (A') (A') (A") (A') (A') (A")
                 (A") (A") (A') (A") (A') (A") (A') (A') (A") (A')
                 (A') (A") (A") (A') (A") (A') (A") (A") (A') (A')
                 (A') (A') (A") (A") (A') (A") (A') (A") (A") (A")
                 (A') (A') (A") (A') (A') (A') (A") (A") (A") (A')
                 (A') (A') (A") (A") (A') (A") (A') (A") (A") (A')
                 (A') (A") (A") (A") (A') (A') (A') (A') (A") (A")
                 (A') (A') (A") (A') (A") (A') (A') (A") (A') (A")
                 (A') (A") (A') (A") (A") (A') (A') (A") (A') (A")
                 (A') (A") (A') (A") (A') (A') (A") (A') (A') (A')
                 (A") (A') (A") (A") (A') (A") (A') (A') (A") (A")
                 (A") (A') (A") (A") (A') (A') (A") (A") (A') (A")
                 (A') (A') (A") (A") (A') (A') (A') (A') (A") (A")
                 (A") (A") (A') (A') (A") (A') (A') (A") (A') (A')
                 (A") (A") (A") (A") (A') (A') (A") (A') (A') (A")
                 (A') (A") (A') (A') (A") (A") (A') (A') (A") (A')
                 (A') (A") (A') (A")
 The electronic state is 1-A'.
 Alpha  occ. eigenvalues --  -10.19641 -10.19641 -10.19569 -10.19568 -10.19554
 Alpha  occ. eigenvalues --  -10.19553 -10.19449 -10.19449 -10.18683 -10.18614
 Alpha  occ. eigenvalues --  -10.18614 -10.18594 -10.18563 -10.18563 -10.18547
 Alpha  occ. eigenvalues --  -10.18547 -10.18461 -10.18461 -10.18446 -10.18446
 Alpha  occ. eigenvalues --  -10.18343 -10.18343 -10.18035 -10.18035 -10.17990
 Alpha  occ. eigenvalues --  -10.17990 -10.17941 -10.17940 -10.17869 -10.17869
 Alpha  occ. eigenvalues --  -10.17124 -10.17124 -10.17051 -10.17051 -10.17045
 Alpha  occ. eigenvalues --  -10.17040 -10.17040 -10.16965 -10.16965 -10.16885
 Alpha  occ. eigenvalues --  -10.16852 -10.16852 -10.16794 -10.16794  -0.90038
 Alpha  occ. eigenvalues --   -0.88542  -0.88436  -0.86987  -0.86217  -0.84684
 Alpha  occ. eigenvalues --   -0.83078  -0.81556  -0.80515  -0.79180  -0.78989
 Alpha  occ. eigenvalues --   -0.78894  -0.77666  -0.77414  -0.76657  -0.75103
 Alpha  occ. eigenvalues --   -0.74912  -0.73563  -0.73393  -0.72019  -0.69865
 Alpha  occ. eigenvalues --   -0.68310  -0.67995  -0.66477  -0.63388  -0.63011
 Alpha  occ. eigenvalues --   -0.61853  -0.61771  -0.61517  -0.60613  -0.60172
 Alpha  occ. eigenvalues --   -0.59943  -0.59046  -0.58408  -0.58331  -0.56829
 Alpha  occ. eigenvalues --   -0.53349  -0.53208  -0.52928  -0.51853  -0.51684
 Alpha  occ. eigenvalues --   -0.51440  -0.50282  -0.49145  -0.48765  -0.47782
 Alpha  occ. eigenvalues --   -0.47682  -0.46748  -0.46311  -0.46207  -0.46121
 Alpha  occ. eigenvalues --   -0.45374  -0.44798  -0.44609  -0.44562  -0.43794
 Alpha  occ. eigenvalues --   -0.43189  -0.43090  -0.42446  -0.42383  -0.42198
 Alpha  occ. eigenvalues --   -0.41922  -0.41721  -0.41354  -0.41030  -0.40903
 Alpha  occ. eigenvalues --   -0.40682  -0.40506  -0.40225  -0.39795  -0.39546
 Alpha  occ. eigenvalues --   -0.38813  -0.38727  -0.37429  -0.37364  -0.36955
 Alpha  occ. eigenvalues --   -0.36166  -0.35894  -0.35524  -0.34744  -0.34574
 Alpha  occ. eigenvalues --   -0.34420  -0.33688  -0.33506  -0.33217  -0.33012
 Alpha  occ. eigenvalues --   -0.32973  -0.32102  -0.31310  -0.30721  -0.30109
 Alpha  occ. eigenvalues --   -0.29053  -0.28799  -0.27588  -0.27230  -0.25767
 Alpha  occ. eigenvalues --   -0.25056  -0.23529  -0.23246  -0.21726  -0.18568
 Alpha  occ. eigenvalues --   -0.16976
 Alpha virt. eigenvalues --   -0.10484  -0.08882  -0.05186  -0.03618  -0.03484
 Alpha virt. eigenvalues --   -0.01915  -0.00914   0.00696   0.01346   0.01462
 Alpha virt. eigenvalues --    0.02074   0.02884   0.03192   0.03745   0.03961
 Alpha virt. eigenvalues --    0.04018   0.04661   0.05492   0.05640   0.05993
 Alpha virt. eigenvalues --    0.06117   0.06683   0.07244   0.07576   0.07746
 Alpha virt. eigenvalues --    0.08112   0.08787   0.09118   0.09475   0.09618
 Alpha virt. eigenvalues --    0.10603   0.10943   0.11122   0.11370   0.11832
 Alpha virt. eigenvalues --    0.12778   0.12983   0.13121   0.13295   0.14151
 Alpha virt. eigenvalues --    0.14609   0.15048   0.16044   0.16379   0.17561
 Alpha virt. eigenvalues --    0.17720   0.18165   0.18682   0.19038   0.19774
 Alpha virt. eigenvalues --    0.20102   0.20540   0.22246   0.22433   0.23790
 Alpha virt. eigenvalues --    0.23915   0.23935   0.24154   0.25005   0.25380
 Alpha virt. eigenvalues --    0.25844   0.26253   0.26878   0.27057   0.27538
 Alpha virt. eigenvalues --    0.27670   0.28121   0.28479   0.28650   0.28858
 Alpha virt. eigenvalues --    0.29017   0.29316   0.29788   0.30087   0.30192
 Alpha virt. eigenvalues --    0.30304   0.30625   0.31317   0.31481   0.32062
 Alpha virt. eigenvalues --    0.32618   0.34123   0.34390   0.34861   0.35168
 Alpha virt. eigenvalues --    0.35212   0.35580   0.35841   0.36394   0.36524
 Alpha virt. eigenvalues --    0.36766   0.37325   0.37442   0.37785   0.37803
 Alpha virt. eigenvalues --    0.38146   0.38381   0.38556   0.38658   0.38737
 Alpha virt. eigenvalues --    0.39386   0.39387   0.39621   0.39737   0.40298
 Alpha virt. eigenvalues --    0.40423   0.40448   0.40705   0.41201   0.41362
 Alpha virt. eigenvalues --    0.41635   0.42140   0.42163   0.42283   0.42426
 Alpha virt. eigenvalues --    0.42641   0.42773   0.43063   0.43115   0.43303
 Alpha virt. eigenvalues --    0.43416   0.44147   0.44686   0.44774   0.45048
 Alpha virt. eigenvalues --    0.45135   0.45632   0.45662   0.45773   0.45933
 Alpha virt. eigenvalues --    0.45987   0.46220   0.46551   0.46582   0.46768
 Alpha virt. eigenvalues --    0.46769   0.47105   0.47358   0.47531   0.48164
 Alpha virt. eigenvalues --    0.48504   0.48809   0.48944   0.49044   0.49128
 Alpha virt. eigenvalues --    0.49790   0.50222   0.50320   0.50403   0.50462
 Alpha virt. eigenvalues --    0.50760   0.51035   0.51850   0.52345   0.52483
 Alpha virt. eigenvalues --    0.52985   0.53076   0.53365   0.53513   0.54844
 Alpha virt. eigenvalues --    0.54915   0.56065   0.56502   0.56708   0.57009
 Alpha virt. eigenvalues --    0.57124   0.57385   0.57610   0.57813   0.58253
 Alpha virt. eigenvalues --    0.58915   0.59082   0.59480   0.59761   0.60041
 Alpha virt. eigenvalues --    0.60611   0.60865   0.61314   0.61342   0.61729
 Alpha virt. eigenvalues --    0.62017   0.62029   0.62502   0.62531   0.62837
 Alpha virt. eigenvalues --    0.63119   0.63247   0.63509   0.63666   0.63931
 Alpha virt. eigenvalues --    0.64037   0.64145   0.64569   0.65210   0.65744
 Alpha virt. eigenvalues --    0.66081   0.66153   0.66187   0.67003   0.67413
 Alpha virt. eigenvalues --    0.68267   0.68431   0.69384   0.69993   0.70302
 Alpha virt. eigenvalues --    0.71043   0.71119   0.71996   0.72066   0.72312
 Alpha virt. eigenvalues --    0.73023   0.73131   0.73909   0.74221   0.74671
 Alpha virt. eigenvalues --    0.74950   0.75495   0.75702   0.75899   0.76634
 Alpha virt. eigenvalues --    0.76921   0.77494   0.77696   0.77855   0.78495
 Alpha virt. eigenvalues --    0.79221   0.79454   0.79627   0.79775   0.80257
 Alpha virt. eigenvalues --    0.81000   0.81071   0.81699   0.81841   0.82650
 Alpha virt. eigenvalues --    0.82728   0.83249   0.83422   0.83504   0.83740
 Alpha virt. eigenvalues --    0.84481   0.84816   0.85396   0.85914   0.86862
 Alpha virt. eigenvalues --    0.87215   0.88049   0.88127   0.89271   0.90243
 Alpha virt. eigenvalues --    0.90413   0.90441   0.91166   0.91587   0.91839
 Alpha virt. eigenvalues --    0.92362   0.92684   0.92868   0.93731   0.94543
 Alpha virt. eigenvalues --    0.95009   0.95333   0.95497   0.95650   0.96155
 Alpha virt. eigenvalues --    0.96534   0.96568   0.96811   0.97881   0.98177
 Alpha virt. eigenvalues --    0.98568   0.99431   1.00101   1.00452   1.00692
 Alpha virt. eigenvalues --    1.01007   1.01669   1.01869   1.02157   1.02354
 Alpha virt. eigenvalues --    1.02728   1.03463   1.03697   1.04625   1.04644
 Alpha virt. eigenvalues --    1.04995   1.05309   1.05444   1.05498   1.05647
 Alpha virt. eigenvalues --    1.06190   1.06305   1.06440   1.06479   1.07139
 Alpha virt. eigenvalues --    1.07262   1.07851   1.08352   1.08424   1.08664
 Alpha virt. eigenvalues --    1.08801   1.09522   1.09914   1.10940   1.10977
 Alpha virt. eigenvalues --    1.11149   1.11203   1.11670   1.12868   1.13183
 Alpha virt. eigenvalues --    1.13391   1.13929   1.14095   1.14312   1.14705
 Alpha virt. eigenvalues --    1.15248   1.15383   1.16402   1.16604   1.16877
 Alpha virt. eigenvalues --    1.17735   1.18563   1.18632   1.19331   1.20674
 Alpha virt. eigenvalues --    1.21019   1.22213   1.22988   1.24135   1.24709
 Alpha virt. eigenvalues --    1.25225   1.26108   1.27824   1.28490   1.30524
 Alpha virt. eigenvalues --    1.31100   1.31159   1.32568   1.33073   1.33369
 Alpha virt. eigenvalues --    1.34925   1.35262   1.36050   1.36844   1.37671
 Alpha virt. eigenvalues --    1.39086   1.39176   1.39972   1.40360   1.40753
 Alpha virt. eigenvalues --    1.40992   1.41289   1.41340   1.41902   1.42006
 Alpha virt. eigenvalues --    1.42765   1.43921   1.44245   1.44405   1.45177
 Alpha virt. eigenvalues --    1.45319   1.46249   1.46992   1.47005   1.47323
 Alpha virt. eigenvalues --    1.47468   1.47932   1.48470   1.48794   1.49460
 Alpha virt. eigenvalues --    1.49691   1.50168   1.50238   1.50238   1.50722
 Alpha virt. eigenvalues --    1.50987   1.51403   1.51816   1.52599   1.52964
 Alpha virt. eigenvalues --    1.53213   1.53856   1.54528   1.54684   1.55092
 Alpha virt. eigenvalues --    1.55132   1.55193   1.55408   1.55790   1.55867
 Alpha virt. eigenvalues --    1.57491   1.57571   1.57887   1.58309   1.58346
 Alpha virt. eigenvalues --    1.59455   1.60201   1.60912   1.61109   1.61410
 Alpha virt. eigenvalues --    1.61692   1.62066   1.62606   1.63219   1.64384
 Alpha virt. eigenvalues --    1.64863   1.65083   1.66672   1.66808   1.67729
 Alpha virt. eigenvalues --    1.69035   1.69082   1.69290   1.70499   1.70860
 Alpha virt. eigenvalues --    1.70951   1.71132   1.71796   1.71892   1.72110
 Alpha virt. eigenvalues --    1.72573   1.73118   1.73546   1.73794   1.73899
 Alpha virt. eigenvalues --    1.73961   1.74540   1.75008   1.75446   1.76422
 Alpha virt. eigenvalues --    1.76877   1.78399   1.79018   1.79561   1.79927
 Alpha virt. eigenvalues --    1.80170   1.80345   1.80746   1.81305   1.81313
 Alpha virt. eigenvalues --    1.81867   1.82164   1.82487   1.82810   1.83035
 Alpha virt. eigenvalues --    1.83418   1.84649   1.84981   1.85190   1.85402
 Alpha virt. eigenvalues --    1.85593   1.86587   1.87021   1.87371   1.87973
 Alpha virt. eigenvalues --    1.88319   1.88412   1.88415   1.88553   1.88751
 Alpha virt. eigenvalues --    1.89058   1.89491   1.89581   1.90722   1.91104
 Alpha virt. eigenvalues --    1.91285   1.91330   1.91763   1.92132   1.92594
 Alpha virt. eigenvalues --    1.92800   1.93256   1.93872   1.94013   1.94149
 Alpha virt. eigenvalues --    1.94573   1.94601   1.94993   1.95104   1.95717
 Alpha virt. eigenvalues --    1.96538   1.96578   1.96672   1.96841   1.98127
 Alpha virt. eigenvalues --    1.99331   1.99736   2.00456   2.00776   2.00795
 Alpha virt. eigenvalues --    2.01279   2.01630   2.02506   2.03124   2.04230
 Alpha virt. eigenvalues --    2.05759   2.06897   2.07750   2.08183   2.08923
 Alpha virt. eigenvalues --    2.09276   2.09320   2.10854   2.11017   2.11668
 Alpha virt. eigenvalues --    2.11693   2.12512   2.13164   2.13769   2.15267
 Alpha virt. eigenvalues --    2.15290   2.16356   2.16618   2.16760   2.17949
 Alpha virt. eigenvalues --    2.18067   2.19638   2.20364   2.21404   2.21576
 Alpha virt. eigenvalues --    2.22605   2.22806   2.23004   2.23249   2.23781
 Alpha virt. eigenvalues --    2.24248   2.25519   2.25679   2.26470   2.26731
 Alpha virt. eigenvalues --    2.27016   2.27706   2.28008   2.28191   2.28370
 Alpha virt. eigenvalues --    2.28604   2.29983   2.30357   2.30831   2.32084
 Alpha virt. eigenvalues --    2.33760   2.35244   2.35510   2.36688   2.38757
 Alpha virt. eigenvalues --    2.38881   2.40150   2.40357   2.41079   2.41537
 Alpha virt. eigenvalues --    2.42604   2.43166   2.45201   2.45400   2.45446
 Alpha virt. eigenvalues --    2.46386   2.46528   2.46792   2.46908   2.49468
 Alpha virt. eigenvalues --    2.50273   2.50986   2.52311   2.53509   2.53777
 Alpha virt. eigenvalues --    2.54645   2.55050   2.55608   2.56270   2.56558
 Alpha virt. eigenvalues --    2.57661   2.58074   2.58489   2.58766   2.59459
 Alpha virt. eigenvalues --    2.59504   2.60513   2.60733   2.60854   2.61286
 Alpha virt. eigenvalues --    2.61420   2.62172   2.62229   2.62900   2.62992
 Alpha virt. eigenvalues --    2.63636   2.64135   2.64480   2.64512   2.64799
 Alpha virt. eigenvalues --    2.65718   2.66120   2.66210   2.66337   2.66825
 Alpha virt. eigenvalues --    2.67359   2.67806   2.68038   2.68182   2.68507
 Alpha virt. eigenvalues --    2.68559   2.69026   2.69394   2.69907   2.69915
 Alpha virt. eigenvalues --    2.70342   2.70751   2.71092   2.71116   2.71469
 Alpha virt. eigenvalues --    2.71976   2.72205   2.72642   2.73437   2.73757
 Alpha virt. eigenvalues --    2.74279   2.75543   2.75598   2.75966   2.76057
 Alpha virt. eigenvalues --    2.76503   2.77026   2.77375   2.78196   2.78988
 Alpha virt. eigenvalues --    2.79065   2.79549   2.79737   2.79941   2.81073
 Alpha virt. eigenvalues --    2.81406   2.81773   2.82285   2.82576   2.83538
 Alpha virt. eigenvalues --    2.84183   2.85445   2.85480   2.86102   2.86179
 Alpha virt. eigenvalues --    2.86838   2.87673   2.87827   2.89278   2.89523
 Alpha virt. eigenvalues --    2.90045   2.90465   2.91216   2.91810   2.92621
 Alpha virt. eigenvalues --    2.92788   2.92950   2.93624   2.94926   2.95528
 Alpha virt. eigenvalues --    2.95783   2.95949   2.96214   2.98040   2.98230
 Alpha virt. eigenvalues --    2.98672   3.00428   3.00799   3.03857   3.03918
 Alpha virt. eigenvalues --    3.05275   3.06266   3.07260   3.07768   3.07870
 Alpha virt. eigenvalues --    3.09294   3.09862   3.15683   3.16042   3.16301
 Alpha virt. eigenvalues --    3.17223   3.17790   3.18132   3.19780   3.20101
 Alpha virt. eigenvalues --    3.21188   3.21787   3.23218   3.25148   3.29435
 Alpha virt. eigenvalues --    3.29827   3.30748   3.31042   3.31690   3.33414
 Alpha virt. eigenvalues --    3.35442   3.35766   3.36395   3.36647   3.37359
 Alpha virt. eigenvalues --    3.37484   3.37596   3.38383   3.39277   3.39596
 Alpha virt. eigenvalues --    3.40374   3.41362   3.41678   3.43639   3.45220
 Alpha virt. eigenvalues --    3.45370   3.46134   3.47012   3.48674   3.48880
 Alpha virt. eigenvalues --    3.50360   3.50630   3.51231   3.51572   3.53261
 Alpha virt. eigenvalues --    3.55025   3.57401   3.58711   3.58714   3.60025
 Alpha virt. eigenvalues --    3.61825   3.62764   3.63092   3.63885   3.63910
 Alpha virt. eigenvalues --    3.65083   3.65959   3.66520   3.67579   3.67787
 Alpha virt. eigenvalues --    3.68635   3.68662   3.69834   3.69998   4.00128
 Alpha virt. eigenvalues --    4.00182   4.01316   4.01550   4.02271   4.02293
 Alpha virt. eigenvalues --    4.03019   4.03317   4.15717   4.16211   4.17468
 Alpha virt. eigenvalues --    4.18748   4.19408   4.20078   4.21193   4.22066
 Alpha virt. eigenvalues --    4.22167   4.23585   4.24235   4.25618   4.27391
 Alpha virt. eigenvalues --    4.29114   4.38030   4.40853   4.61862   4.64335
 Alpha virt. eigenvalues --    4.78556   4.79165   4.79918   4.80670   4.81057
 Alpha virt. eigenvalues --    4.81942   4.82245   4.82412   4.84564   4.84941
 Alpha virt. eigenvalues --   23.39516  23.42110  23.54944  23.57581  23.69550
 Alpha virt. eigenvalues --   23.71856  23.77607  23.78928  23.80714  23.81537
 Alpha virt. eigenvalues --   23.82362  23.83513  23.86214  23.87453  23.89121
 Alpha virt. eigenvalues --   23.89429  23.90529  23.90529  23.92251  23.94077
 Alpha virt. eigenvalues --   23.96966  23.98072  23.98635  23.99419  24.08686
 Alpha virt. eigenvalues --   24.09344  24.10018  24.10115  24.10917  24.11530
 Alpha virt. eigenvalues --   24.11935  24.13287  24.13424  24.13805  24.14971
 Alpha virt. eigenvalues --   24.15198  24.15230  24.15700  24.16639  24.16673
 Alpha virt. eigenvalues --   24.19895  24.19941  24.21497  24.21554
          Condensed to atoms (all electrons):
 Mulliken charges:
               1
     1  C   -0.053749
     2  C   -0.028407
     3  C   -0.048612
     4  C   -0.106307
     5  C   -0.086078
     6  C   -0.081936
     7  C    0.000393
     8  C   -0.053932
     9  C   -0.086502
    10  C   -0.015335
    11  H    0.085055
    12  H    0.078135
    13  H    0.078761
    14  H    0.088098
    15  H    0.098564
    16  H    0.097404
    17  C   -0.004190
    18  C   -0.053932
    19  C   -0.090008
    20  C   -0.015335
    21  H    0.076822
    22  H    0.077557
    23  C    0.000393
    24  C   -0.053749
    25  C   -0.086502
    26  C   -0.028407
    27  H    0.078135
    28  H    0.078761
    29  C   -0.048612
    30  C   -0.086078
    31  C   -0.106307
    32  C   -0.081936
    33  H    0.085055
    34  H    0.097404
    35  H    0.098564
    36  H    0.088098
    37  C   -0.020465
    38  C   -0.121271
    39  C   -0.063247
    40  C   -0.049765
    41  C   -0.086144
    42  C   -0.120939
    43  C   -0.031359
    44  C   -0.007327
    45  C   -0.011074
    46  C   -0.128111
    47  H    0.078601
    48  H    0.070246
    49  H    0.124646
    50  H    0.124091
    51  H    0.085394
    52  H    0.091089
    53  C   -0.035259
    54  C   -0.007327
    55  C   -0.016460
    56  C   -0.128111
    57  H    0.068867
    58  H    0.122841
    59  C   -0.031359
    60  C   -0.020465
    61  C   -0.011074
    62  C   -0.121271
    63  H    0.070246
    64  H    0.124646
    65  C   -0.063247
    66  C   -0.086144
    67  C   -0.049765
    68  C   -0.120939
    69  H    0.078601
    70  H    0.091089
    71  H    0.085394
    72  H    0.124091
 Sum of Mulliken charges =   0.00000
 Mulliken charges with hydrogens summed into heavy atoms:
               1
     1  C   -0.053749
     2  C   -0.028407
     3  C    0.036442
     4  C   -0.018209
     5  C    0.011325
     6  C    0.016628
     7  C    0.078528
     8  C   -0.053932
     9  C   -0.007740
    10  C   -0.015335
    17  C    0.072632
    18  C   -0.053932
    19  C   -0.012452
    20  C   -0.015335
    23  C    0.078528
    24  C   -0.053749
    25  C   -0.007740
    26  C   -0.028407
    29  C    0.036442
    30  C    0.011325
    31  C   -0.018209
    32  C    0.016628
    37  C   -0.020465
    38  C   -0.121271
    39  C    0.015354
    40  C    0.074326
    41  C    0.004945
    42  C   -0.035545
    43  C    0.038887
    44  C   -0.007327
    45  C    0.113572
    46  C   -0.128111
    53  C    0.033608
    54  C   -0.007327
    55  C    0.106381
    56  C   -0.128111
    59  C    0.038887
    60  C   -0.020465
    61  C    0.113572
    62  C   -0.121271
    65  C    0.015354
    66  C    0.004945
    67  C    0.074326
    68  C   -0.035545
         Mulliken charges condensed to fragments:
      1     -0.008716
      2      0.008716
 Electronic spatial extent (au):  <R**2>=          26109.0603
 Charge=              0.0000 electrons
 Dipole moment (field-independent basis, Debye):
    X=              0.9172    Y=             -1.4896    Z=              0.0000  Tot=              1.7493
 Quadrupole moment (field-independent basis, Debye-Ang):
   XX=           -245.8131   YY=           -249.2587   ZZ=           -219.4166
   XY=             -0.4073   XZ=              0.0000   YZ=              0.0000
 Traceless Quadrupole moment (field-independent basis, Debye-Ang):
   XX=             -7.6503   YY=            -11.0959   ZZ=             18.7462
   XY=             -0.4073   XZ=              0.0000   YZ=              0.0000
 Octapole moment (field-independent basis, Debye-Ang**2):
  XXX=             67.1724  YYY=            173.0713  ZZZ=              0.0000  XYY=            -13.4175
  XXY=            -71.8604  XXZ=              0.0000  XZZ=             16.2147  YZZ=            -34.4477
  YYZ=              0.0000  XYZ=              0.0000
 Hexadecapole moment (field-independent basis, Debye-Ang**3):
 XXXX=          -2192.5325 YYYY=         -11073.4625 ZZZZ=         -21017.5988 XXXY=           1502.9935
 XXXZ=              0.0000 YYYX=           1516.5817 YYYZ=              0.0000 ZZZX=              0.0000
 ZZZY=              0.0000 XXYY=          -2286.9242 XXZZ=          -4299.4870 YYZZ=          -5642.6416
 XXYZ=              0.0000 YYXZ=              0.0000 ZZXY=            443.8772
 N-N= 4.617778215256D+03 E-N=-1.316607571918D+04  KE= 1.686714060097D+03
 Symmetry A'   KE= 9.134392269590D+02
 Symmetry A"   KE= 7.732748331385D+02
 No NMR shielding tensors so no spin-rotation constants.
 Leave Link  601 at Wed Sep 27 16:59:54 2023, MaxMem=  3221225472 cpu:              52.3 elap:               1.4
 (Enter /home/center/opt/aarch64/apps/gaussian16/c01/g16/l122.exe)
 CPIOFr:  IOpCl= 0 IRwI=-1 IRwCP=  731 ICalc= -1 LCPTot=     1419224 Len1MO=     3708034 IndFrg=     1419224
 CPIOFr:  IOpCl= 0 IRwI=-1 IRwCP=  731 ICalc=  0 LCPTot=     1419224 Len1MO=     3708034 IndFrg=     5127258
 Counterpoise: doing calculation for fragment   1 using the basis set of the full-system, NewBq=T
 Leave Link  122 at Wed Sep 27 16:59:56 2023, MaxMem=  3221225472 cpu:               8.6 elap:               0.4
 (Enter /home/center/opt/aarch64/apps/gaussian16/c01/g16/l301.exe)
 Basis read from rwf:  (5D, 7F)
 No pseudopotential information found on rwf file.
 There are   528 symmetry adapted cartesian basis functions of A'  symmetry.
 There are   476 symmetry adapted cartesian basis functions of A"  symmetry.
 There are   504 symmetry adapted basis functions of A'  symmetry.
 There are   456 symmetry adapted basis functions of A"  symmetry.
   960 basis functions,  1632 primitive gaussians,  1004 cartesian basis functions
    73 alpha electrons       73 beta electrons
       nuclear repulsion energy      1494.3575060119 Hartrees.
 IExCor=  402 DFT=T Ex+Corr=B3LYP ExCW=0 ScaHFX=  0.200000
 ScaDFX=  0.800000  0.720000  1.000000  0.810000 ScalE2=  1.000000  1.000000
 IRadAn=      5 IRanWt=     -1 IRanGd=            0 ICorTp=0 IEmpDi=131
 NAtoms=   72 NActive=   72 NUniq=   40 SFac= 3.24D+00 NAtFMM=   60 NAOKFM=T Big=F
 Integral buffers will be    131072 words long.
 Raffenetti 2 integral format.
 Two-electron integral symmetry is turned on.
 R6Disp:  Grimme-D3 Dispersion energy=       -0.0303938888 Hartrees.
 Nuclear repulsion after empirical dispersion term =     1494.3271121231 Hartrees.
 No density basis found on file    718.
 Leave Link  301 at Wed Sep 27 16:59:59 2023, MaxMem=  3221225472 cpu:               2.6 elap:               0.1
 (Enter /home/center/opt/aarch64/apps/gaussian16/c01/g16/l302.exe)
 NPDir=0 NMtPBC=     1 NCelOv=     1 NCel=       1 NClECP=     1 NCelD=      1
         NCelK=      1 NCelE2=     1 NClLst=     1 CellRange=     0.0.
 One-electron integrals computed using PRISM.
 One-electron integral symmetry used in STVInt
 NBasis=   960 RedAO= T EigKep=  3.73D-05  NBF=   504   456
 NBsUse=   960 1.00D-06 EigRej= -1.00D+00 NBFU=   504   456
 Precomputing XC quadrature grid using
 IXCGrd= 4 IRadAn=           5 IRanWt=          -1 IRanGd=           0 AccXCQ= 0.00D+00.
 Generated NRdTot=       0 NPtTot=           0 NUsed=           0 NTot=          32
 NSgBfM=   989   989   989   989   989 MxSgAt=    72 MxSgA2=    72.
 Leave Link  302 at Wed Sep 27 17:00:03 2023, MaxMem=  3221225472 cpu:              62.2 elap:               1.7
 (Enter /home/center/opt/aarch64/apps/gaussian16/c01/g16/l303.exe)
 DipDrv:  MaxL=1.
 Leave Link  303 at Wed Sep 27 17:00:05 2023, MaxMem=  3221225472 cpu:              14.9 elap:               0.4
 (Enter /home/center/opt/aarch64/apps/gaussian16/c01/g16/l401.exe)
 ExpMin= 1.03D-01 ExpMax= 4.56D+03 ExpMxC= 6.82D+02 IAcc=3 IRadAn=         5 AccDes= 0.00D+00
 Harris functional with IExCor=  402 and IRadAn=       5 diagonalized for initial guess.
 HarFok:  IExCor=  402 AccDes= 0.00D+00 IRadAn=         5 IDoV= 1 UseB2=F ITyADJ=14
 ICtDFT=  3500011 ScaDFX=  1.000000  1.000000  1.000000  1.000000
 FoFCou: FMM=F IPFlag=           0 FMFlag=      100000 FMFlg1=        2000
         NFxFlg=           0 DoJE=T BraDBF=F KetDBF=T FulRan=T
         wScrn=  0.000000 ICntrl=       500 IOpCl=  0 I1Cent=   200000004 NGrid=           0
         NMat0=    1 NMatS0=      1 NMatT0=    0 NMatD0=    1 NMtDS0=    0 NMtDT0=    0
 Petite list used in FoFCou.
 Harris En= -847.066161228379    
 JPrj=0 DoOrth=F DoCkMO=F.
 Initial guess orbital symmetries:
       Occupied  (A") (A') (A') (A") (A") (A') (A") (A') (A') (A")
                 (A") (A') (A') (A') (A") (A') (A") (A') (A") (A')
                 (A') (A") (A') (A") (A') (A") (A') (A') (A") (A')
                 (A") (A") (A') (A') (A") (A") (A') (A") (A') (A')
                 (A') (A") (A") (A") (A') (A') (A") (A') (A') (A")
                 (A') (A") (A") (A') (A') (A") (A') (A") (A') (A")
                 (A") (A') (A') (A") (A') (A") (A') (A") (A') (A')
                 (A") (A") (A')
       Virtual   (A') (A") (A") (A') (A') (A") (A') (A") (A') (A")
                 (A') (A') (A") (A') (A") (A') (A") (A') (A') (A")
                 (A") (A") (A') (A') (A") (A') (A') (A') (A') (A")
                 (A') (A") (A') (A") (A') (A") (A') (A") (A") (A')
                 (A') (A") (A") (A') (A") (A') (A") (A') (A") (A')
                 (A") (A') (A") (A') (A') (A') (A") (A") (A') (A")
                 (A') (A') (A') (A") (A") (A') (A") (A') (A") (A')
                 (A') (A") (A") (A') (A') (A") (A') (A') (A') (A")
                 (A') (A') (A") (A') (A") (A") (A') (A") (A') (A")
                 (A") (A") (A") (A') (A') (A") (A") (A') (A') (A')
                 (A') (A") (A') (A') (A") (A') (A") (A') (A") (A')
                 (A') (A") (A") (A') (A") (A") (A') (A") (A") (A')
                 (A') (A") (A') (A") (A') (A') (A') (A") (A') (A")
                 (A') (A') (A") (A') (A") (A") (A') (A') (A") (A')
                 (A') (A") (A') (A") (A') (A") (A') (A") (A") (A')
                 (A") (A') (A") (A") (A') (A") (A') (A') (A') (A")
                 (A') (A") (A') (A") (A') (A') (A") (A') (A") (A")
                 (A") (A') (A") (A') (A') (A') (A") (A") (A') (A")
                 (A') (A") (A') (A") (A') (A") (A') (A") (A') (A")
                 (A') (A') (A') (A") (A') (A") (A") (A') (A') (A')
                 (A") (A") (A") (A') (A') (A") (A") (A') (A") (A')
                 (A') (A") (A') (A") (A') (A") (A") (A') (A") (A")
                 (A') (A') (A') (A') (A") (A") (A') (A') (A") (A')
                 (A') (A") (A') (A') (A") (A") (A") (A") (A') (A")
                 (A') (A") (A') (A") (A') (A') (A') (A") (A") (A')
                 (A") (A") (A") (A') (A') (A') (A') (A") (A') (A")
                 (A") (A') (A") (A') (A') (A') (A") (A') (A") (A")
                 (A') (A') (A") (A") (A") (A') (A") (A') (A") (A')
                 (A") (A') (A") (A') (A') (A") (A') (A') (A") (A')
                 (A") (A') (A") (A') (A') (A') (A") (A') (A") (A')
                 (A") (A') (A") (A") (A') (A") (A") (A') (A") (A')
                 (A") (A") (A') (A') (A') (A') (A") (A") (A') (A")
                 (A') (A") (A') (A") (A') (A') (A") (A') (A") (A')
                 (A") (A') (A') (A') (A") (A') (A") (A') (A") (A')
                 (A") (A') (A") (A") (A') (A") (A") (A') (A') (A')
                 (A") (A') (A") (A') (A") (A') (A") (A') (A') (A')
                 (A") (A') (A") (A') (A") (A") (A") (A') (A') (A")
                 (A") (A') (A") (A') (A") (A') (A') (A") (A") (A')
                 (A") (A') (A") (A') (A') (A") (A') (A") (A') (A')
                 (A") (A") (A") (A') (A') (A') (A") (A") (A') (A")
                 (A') (A") (A") (A') (A") (A") (A') (A') (A') (A")
                 (A') (A") (A') (A') (A") (A') (A') (A") (A") (A')
                 (A") (A') (A") (A') (A") (A') (A") (A") (A') (A")
                 (A") (A') (A') (A') (A') (A') (A") (A") (A") (A')
                 (A") (A') (A") (A') (A") (A') (A') (A") (A') (A")
                 (A") (A') (A') (A') (A') (A") (A') (A") (A") (A")
                 (A") (A') (A') (A') (A") (A") (A") (A') (A') (A')
                 (A') (A") (A") (A") (A') (A") (A") (A') (A') (A")
                 (A') (A") (A") (A') (A") (A') (A') (A") (A") (A')
                 (A") (A') (A') (A') (A") (A") (A') (A") (A') (A")
                 (A") (A') (A') (A") (A') (A") (A') (A') (A") (A")
                 (A') (A") (A') (A") (A') (A") (A") (A') (A') (A')
                 (A') (A") (A") (A") (A') (A") (A') (A") (A') (A')
                 (A") (A') (A') (A") (A') (A") (A') (A') (A") (A')
                 (A") (A") (A') (A') (A") (A') (A") (A') (A") (A')
                 (A") (A') (A") (A') (A") (A') (A") (A') (A') (A")
                 (A') (A") (A') (A") (A") (A') (A") (A") (A') (A')
                 (A") (A') (A') (A') (A") (A') (A') (A") (A") (A')
                 (A") (A") (A') (A") (A") (A') (A") (A') (A') (A")
                 (A') (A') (A') (A") (A') (A") (A') (A") (A') (A")
                 (A") (A') (A") (A") (A') (A") (A') (A') (A') (A")
                 (A") (A') (A') (A") (A') (A") (A') (A") (A') (A')
                 (A") (A') (A") (A") (A') (A") (A") (A') (A') (A")
                 (A") (A') (A") (A") (A") (A') (A') (A') (A') (A')
                 (A") (A") (A") (A') (A') (A") (A') (A') (A") (A")
                 (A') (A") (A') (A") (A') (A") (A") (A') (A") (A')
                 (A") (A') (A') (A") (A") (A') (A") (A') (A") (A')
                 (A') (A") (A") (A') (A') (A") (A') (A") (A') (A')
                 (A") (A') (A") (A') (A') (A") (A") (A') (A') (A")
                 (A') (A") (A') (A') (A") (A") (A') (A") (A') (A')
                 (A") (A") (A') (A") (A') (A") (A') (A') (A") (A')
                 (A") (A') (A") (A') (A") (A') (A') (A") (A') (A')
                 (A") (A") (A') (A") (A") (A') (A') (A') (A') (A")
                 (A") (A") (A') (A") (A') (A") (A') (A") (A") (A')
                 (A") (A') (A") (A') (A") (A') (A') (A") (A") (A')
                 (A') (A") (A') (A') (A") (A') (A") (A') (A") (A')
                 (A") (A') (A') (A") (A") (A') (A') (A') (A") (A")
                 (A") (A') (A') (A") (A') (A') (A") (A') (A") (A')
                 (A") (A') (A') (A") (A") (A") (A') (A") (A') (A')
                 (A") (A') (A") (A") (A') (A") (A') (A') (A") (A')
                 (A") (A') (A") (A') (A") (A') (A") (A') (A') (A")
                 (A") (A') (A') (A") (A') (A") (A") (A') (A") (A')
[...]
                 (A') (A') (A") (A") (A') (A") (A') (A") (A') (A')
                 (A") (A") (A')
       Virtual   (A') (A") (A") (A') (A') (A") (A') (A') (A') (A")
                 (A") (A') (A") (A') (A") (A') (A") (A") (A') (A")
                 (A') (A') (A") (A') (A") (A') (A') (A') (A') (A")
                 (A") (A") (A") (A') (A') (A") (A') (A") (A') (A")
                 (A') (A') (A') (A") (A') (A") (A") (A') (A') (A")
                 (A") (A') (A') (A") (A') (A") (A") (A") (A') (A")
                 (A') (A') (A') (A') (A') (A") (A') (A') (A") (A")
                 (A") (A') (A') (A') (A") (A') (A") (A") (A") (A')
                 (A') (A") (A') (A") (A") (A') (A") (A') (A') (A')
                 (A') (A') (A") (A") (A") (A") (A') (A") (A') (A")
                 (A') (A') (A') (A") (A") (A') (A') (A") (A') (A")
                 (A') (A") (A") (A") (A') (A') (A") (A') (A') (A")
                 (A') (A") (A") (A') (A') (A") (A') (A") (A') (A")
                 (A") (A') (A') (A') (A') (A") (A") (A") (A') (A")
                 (A') (A") (A') (A") (A') (A') (A") (A") (A') (A")
                 (A') (A") (A') (A") (A') (A') (A") (A') (A") (A")
                 (A') (A") (A') (A') (A") (A") (A') (A") (A') (A")
                 (A') (A') (A") (A') (A') (A") (A") (A') (A') (A')
                 (A") (A') (A") (A") (A") (A") (A') (A") (A') (A')
                 (A") (A') (A") (A') (A') (A') (A") (A') (A") (A')
                 (A") (A") (A') (A') (A") (A") (A') (A') (A") (A')
                 (A') (A') (A') (A") (A") (A") (A") (A') (A') (A")
                 (A') (A") (A") (A') (A") (A') (A") (A') (A") (A')
                 (A") (A') (A') (A") (A') (A") (A") (A') (A') (A")
                 (A") (A') (A') (A") (A") (A') (A") (A") (A") (A')
                 (A') (A") (A') (A') (A") (A') (A') (A") (A') (A")
                 (A") (A') (A") (A') (A') (A") (A") (A") (A') (A')
                 (A") (A') (A') (A") (A") (A") (A') (A") (A') (A')
                 (A") (A') (A") (A') (A") (A') (A') (A') (A") (A')
                 (A") (A") (A') (A') (A") (A") (A') (A") (A') (A")
                 (A') (A') (A") (A") (A') (A') (A") (A') (A') (A')
                 (A") (A") (A') (A") (A') (A") (A') (A") (A') (A')
                 (A') (A") (A") (A") (A') (A") (A') (A') (A') (A")
                 (A") (A') (A") (A') (A') (A") (A') (A") (A") (A')
                 (A') (A") (A') (A") (A") (A') (A') (A") (A') (A")
                 (A') (A") (A') (A") (A') (A") (A") (A') (A') (A")
                 (A') (A") (A') (A') (A") (A") (A') (A") (A') (A')
                 (A") (A') (A") (A') (A') (A") (A') (A") (A') (A")
                 (A") (A') (A") (A') (A") (A') (A") (A') (A') (A")
                 (A") (A') (A") (A') (A') (A") (A") (A') (A') (A")
                 (A') (A") (A') (A") (A') (A') (A")
 The electronic state is 1-A'.
 Alpha  occ. eigenvalues --  -10.18931 -10.18930 -10.18896 -10.18895 -10.18848
 Alpha  occ. eigenvalues --  -10.18848 -10.18813 -10.18813 -10.17956 -10.17955
 Alpha  occ. eigenvalues --  -10.17920 -10.17920 -10.17919 -10.17919 -10.17875
 Alpha  occ. eigenvalues --  -10.17875 -10.17863 -10.17863 -10.17808 -10.17808
 Alpha  occ. eigenvalues --  -10.17781 -10.17781  -0.89340  -0.87865  -0.85549
 Alpha  occ. eigenvalues --   -0.82415  -0.79820  -0.78521  -0.78314  -0.75991
 Alpha  occ. eigenvalues --   -0.74255  -0.72901  -0.69196  -0.67344  -0.62728
 Alpha  occ. eigenvalues --   -0.62370  -0.61108  -0.59964  -0.59301  -0.57689
 Alpha  occ. eigenvalues --   -0.52709  -0.52573  -0.52293  -0.49654  -0.48513
 Alpha  occ. eigenvalues --   -0.47160  -0.46110  -0.45590  -0.45476  -0.43928
 Alpha  occ. eigenvalues --   -0.43182  -0.42578  -0.41808  -0.41572  -0.41386
 Alpha  occ. eigenvalues --   -0.40692  -0.40405  -0.39579  -0.38193  -0.36732
 Alpha  occ. eigenvalues --   -0.36341  -0.35550  -0.34094  -0.33809  -0.33058
 Alpha  occ. eigenvalues --   -0.32930  -0.31612  -0.29665  -0.28406  -0.26623
 Alpha  occ. eigenvalues --   -0.24364  -0.22582  -0.17855
 Alpha virt. eigenvalues --   -0.09755  -0.04464  -0.02747  -0.00147   0.02073
 Alpha virt. eigenvalues --    0.02370   0.03189   0.04746   0.04859   0.04871
 Alpha virt. eigenvalues --    0.06161   0.06575   0.07968   0.08162   0.08303
 Alpha virt. eigenvalues --    0.09607   0.10049   0.11524   0.11533   0.13796
 Alpha virt. eigenvalues --    0.14111   0.14670   0.18092   0.18194   0.18832
 Alpha virt. eigenvalues --    0.19391   0.22815   0.23002   0.24379   0.24942
 Alpha virt. eigenvalues --    0.25581   0.27528   0.27575   0.28012   0.28228
 Alpha virt. eigenvalues --    0.28947   0.29389   0.30158   0.30759   0.31175
 Alpha virt. eigenvalues --    0.32897   0.34528   0.36420   0.36484   0.37134
 Alpha virt. eigenvalues --    0.37503   0.37629   0.37651   0.38116   0.38643
 Alpha virt. eigenvalues --    0.39094   0.39439   0.39739   0.40236   0.40435
 Alpha virt. eigenvalues --    0.41918   0.41926   0.41940   0.42289   0.42318
 Alpha virt. eigenvalues --    0.42643   0.43748   0.44233   0.44835   0.45295
 Alpha virt. eigenvalues --    0.45683   0.45924   0.45953   0.46379   0.47165
 Alpha virt. eigenvalues --    0.47805   0.47809   0.47978   0.48073   0.48231
 Alpha virt. eigenvalues --    0.48568   0.49414   0.49572   0.51377   0.51846
 Alpha virt. eigenvalues --    0.52370   0.53118   0.53671   0.55998   0.57923
 Alpha virt. eigenvalues --    0.57955   0.59048   0.59201   0.60433   0.60585
 Alpha virt. eigenvalues --    0.60693   0.61101   0.61690   0.62105   0.62173
 Alpha virt. eigenvalues --    0.63432   0.63481   0.64458   0.64535   0.65533
 Alpha virt. eigenvalues --    0.66693   0.66910   0.67680   0.67724   0.70658
 Alpha virt. eigenvalues --    0.71305   0.71405   0.71494   0.72803   0.73989
 Alpha virt. eigenvalues --    0.75405   0.75894   0.76289   0.77801   0.77809
 Alpha virt. eigenvalues --    0.78943   0.79160   0.79723   0.81162   0.81509
 Alpha virt. eigenvalues --    0.82881   0.83001   0.84383   0.84585   0.84713
 Alpha virt. eigenvalues --    0.88087   0.89711   0.89765   0.91536   0.92083
 Alpha virt. eigenvalues --    0.92578   0.93749   0.95806   0.96107   0.96442
 Alpha virt. eigenvalues --    0.96590   0.96905   0.98547   1.00356   1.01118
 Alpha virt. eigenvalues --    1.02686   1.03027   1.03354   1.04405   1.05244
 Alpha virt. eigenvalues --    1.05439   1.05525   1.05950   1.07395   1.07547
 Alpha virt. eigenvalues --    1.07686   1.08438   1.10005   1.10036   1.12070
 Alpha virt. eigenvalues --    1.13223   1.13544   1.13650   1.14526   1.15341
 Alpha virt. eigenvalues --    1.17432   1.18332   1.19657   1.20432   1.23014
 Alpha virt. eigenvalues --    1.23618   1.27884   1.28234   1.30579   1.32076
 Alpha virt. eigenvalues --    1.32743   1.34942   1.37641   1.39236   1.39896
 Alpha virt. eigenvalues --    1.39942   1.40725   1.42751   1.43476   1.43554
 Alpha virt. eigenvalues --    1.45057   1.46086   1.47119   1.47538   1.48841
 Alpha virt. eigenvalues --    1.49280   1.49417   1.50258   1.50674   1.52268
 Alpha virt. eigenvalues --    1.52650   1.53402   1.54331   1.54372   1.54781
 Alpha virt. eigenvalues --    1.54807   1.57107   1.57715   1.58569   1.59882
 Alpha virt. eigenvalues --    1.60106   1.62692   1.63242   1.64856   1.66641
 Alpha virt. eigenvalues --    1.69292   1.69605   1.69709   1.70649   1.71804
 Alpha virt. eigenvalues --    1.72459   1.72619   1.73075   1.73096   1.73680
 Alpha virt. eigenvalues --    1.77494   1.78519   1.79157   1.79419   1.80511
 Alpha virt. eigenvalues --    1.81616   1.81887   1.82058   1.83581   1.84039
 Alpha virt. eigenvalues --    1.85487   1.87392   1.87456   1.87577   1.87728
 Alpha virt. eigenvalues --    1.88131   1.88613   1.90743   1.91387   1.92190
 Alpha virt. eigenvalues --    1.92193   1.92572   1.92670   1.93517   1.93938
 Alpha virt. eigenvalues --    1.94544   1.95483   1.97262   1.99429   2.00088
 Alpha virt. eigenvalues --    2.00602   2.01362   2.03019   2.05757   2.08293
 Alpha virt. eigenvalues --    2.09111   2.09256   2.09792   2.12192   2.14098
 Alpha virt. eigenvalues --    2.15528   2.15584   2.17200   2.19751   2.20833
 Alpha virt. eigenvalues --    2.21576   2.22525   2.23381   2.24503   2.26441
 Alpha virt. eigenvalues --    2.26972   2.27242   2.27719   2.28046   2.29391
 Alpha virt. eigenvalues --    2.33301   2.35725   2.39155   2.39384   2.40817
 Alpha virt. eigenvalues --    2.42649   2.43076   2.45776   2.45994   2.46870
 Alpha virt. eigenvalues --    2.51623   2.51954   2.53354   2.53485   2.55138
 Alpha virt. eigenvalues --    2.56159   2.58701   2.58838   2.59764   2.59776
 Alpha virt. eigenvalues --    2.60682   2.61147   2.61719   2.62222   2.63349
 Alpha virt. eigenvalues --    2.63999   2.64478   2.66054   2.66794   2.67121
 Alpha virt. eigenvalues --    2.67374   2.68356   2.68872   2.68876   2.69372
 Alpha virt. eigenvalues --    2.69557   2.69907   2.70083   2.70281   2.73482
 Alpha virt. eigenvalues --    2.74771   2.74836   2.76066   2.77101   2.77577
 Alpha virt. eigenvalues --    2.78232   2.78455   2.78850   2.80822   2.82359
 Alpha virt. eigenvalues --    2.85535   2.85993   2.86737   2.87294   2.90966
 Alpha virt. eigenvalues --    2.91783   2.92195   2.93676   2.95232   2.95887
 Alpha virt. eigenvalues --    2.99270   2.99858   3.03165   3.05604   3.06852
 Alpha virt. eigenvalues --    3.07371   3.15988   3.16029   3.16647   3.19843
 Alpha virt. eigenvalues --    3.20017   3.23601   3.29134   3.29680   3.31610
 Alpha virt. eigenvalues --    3.35095   3.35458   3.35677   3.35858   3.38023
 Alpha virt. eigenvalues --    3.39887   3.41413   3.44960   3.45362   3.47993
 Alpha virt. eigenvalues --    3.48278   3.50401   3.53073   3.57439   3.58649
 Alpha virt. eigenvalues --    3.61466   3.62620   3.63208   3.63698   3.65910
 Alpha virt. eigenvalues --    3.67534   3.67678   4.00384   4.00442   4.01859
 Alpha virt. eigenvalues --    4.02182   4.16133   4.16678   4.17360   4.21240
 Alpha virt. eigenvalues --    4.22396   4.22517   4.25488   4.38492   4.62290
 Alpha virt. eigenvalues --    4.79179   4.79740   4.80562   4.82562   4.83014
 Alpha virt. eigenvalues --   23.39176  23.54541  23.69085  23.77378  23.80419
 Alpha virt. eigenvalues --   23.81537  23.86099  23.89067  23.89154  23.92210
 Alpha virt. eigenvalues --   23.97563  23.98365  24.09049  24.09932  24.10529
 Alpha virt. eigenvalues --   24.12220  24.13779  24.14375  24.15775  24.15810
 Alpha virt. eigenvalues --   24.20452  24.20497
          Condensed to atoms (all electrons):
 Mulliken charges:
               1
     1  C    0.000000
     2  C    0.000000
     3  C    0.000000
     4  C    0.000000
     5  C    0.000000
     6  C    0.000000
     7  C    0.000000
     8  C    0.000000
     9  C    0.000000
    10  C    0.000000
    11  H    0.000000
    12  H    0.000000
    13  H    0.000000
    14  H    0.000000
    15  H    0.000000
    16  H    0.000000
    17  C    0.000000
    18  C    0.000000
    19  C    0.000000
    20  C    0.000000
    21  H    0.000000
    22  H    0.000000
    23  C    0.000000
    24  C    0.000000
    25  C    0.000000
    26  C    0.000000
    27  H    0.000000
    28  H    0.000000
    29  C    0.000000
    30  C    0.000000
    31  C    0.000000
    32  C    0.000000
    33  H    0.000000
    34  H    0.000000
    35  H    0.000000
    36  H    0.000000
    37  C   -0.059168
    38  C   -0.059168
    39  C   -0.055977
    40  C   -0.055977
    41  C   -0.092198
    42  C   -0.092198
    43  C   -0.016525
    44  C   -0.054498
    45  C   -0.016525
    46  C   -0.054498
    47  H    0.082122
    48  H    0.074853
    49  H    0.074853
    50  H    0.082122
    51  H    0.094847
    52  H    0.094847
    53  C   -0.020341
    54  C   -0.054498
    55  C   -0.020341
    56  C   -0.054498
    57  H    0.073428
    58  H    0.073428
    59  C   -0.016525
    60  C   -0.059168
    61  C   -0.016525
    62  C   -0.059168
    63  H    0.074853
    64  H    0.074853
    65  C   -0.055977
    66  C   -0.092198
    67  C   -0.055977
    68  C   -0.092198
    69  H    0.082122
    70  H    0.094847
    71  H    0.094847
    72  H    0.082122
 Sum of Mulliken charges =   0.00000
 Mulliken charges with hydrogens summed into heavy atoms:
               1
     1  C    0.000000
     2  C    0.000000
     3  C    0.000000
     4  C    0.000000
     5  C    0.000000
     6  C    0.000000
     7  C    0.000000
     8  C    0.000000
     9  C    0.000000
    10  C    0.000000
    17  C    0.000000
    18  C    0.000000
    19  C    0.000000
    20  C    0.000000
    23  C    0.000000
    24  C    0.000000
    25  C    0.000000
    26  C    0.000000
    29  C    0.000000
    30  C    0.000000
    31  C    0.000000
    32  C    0.000000
    37  C   -0.059168
    38  C   -0.059168
    39  C    0.026144
    40  C    0.026144
    41  C    0.002649
    42  C    0.002649
    43  C    0.058328
    44  C   -0.054498
    45  C    0.058328
    46  C   -0.054498
    53  C    0.053087
    54  C   -0.054498
    55  C    0.053087
    56  C   -0.054498
    59  C    0.058328
    60  C   -0.059168
    61  C    0.058328
    62  C   -0.059168
    65  C    0.026144
    66  C    0.002649
    67  C    0.026144
    68  C    0.002649
         Mulliken charges condensed to fragments:
      1      0.000000
      2      0.000000
 Electronic spatial extent (au):  <R**2>=          21061.7192
 Charge=              0.0000 electrons
 Dipole moment (field-independent basis, Debye):
    X=              0.0000    Y=              0.0000    Z=              0.0000  Tot=              0.0000
 Quadrupole moment (field-independent basis, Debye-Ang):
   XX=           -136.3921   YY=           -110.7480   ZZ=           -109.0115
   XY=              0.0000   XZ=              0.0000   YZ=              0.0000
 Traceless Quadrupole moment (field-independent basis, Debye-Ang):
   XX=            -17.6749   YY=              7.9692   ZZ=              9.7057
   XY=              0.0000   XZ=              0.0000   YZ=              0.0000
 Octapole moment (field-independent basis, Debye-Ang**2):
  XXX=           1374.3235  YYY=           1115.9273  ZZZ=              0.0000  XYY=            371.9758
  XXY=            458.1078  XXZ=              0.0000  XZZ=            366.1431  YZZ=            366.1431
  YYZ=              0.0000  XYZ=              0.0000
 Hexadecapole moment (field-independent basis, Debye-Ang**3):
 XXXX=          -9386.4415 YYYY=          -8612.9742 ZZZZ=         -10461.4324 XXXY=          -4616.0188
 XXXZ=              0.0000 YYYX=          -3748.1287 YYYZ=              0.0000 ZZZX=              0.0000
 ZZZY=              0.0000 XXYY=          -3044.4645 XXZZ=          -3437.7177 YYZZ=          -3199.0001
 XXYZ=              0.0000 YYXZ=              0.0000 ZZXY=          -1229.7857
 N-N= 1.494327111716D+03 E-N=-4.953709174967D+03  KE= 8.433374904891D+02
 Symmetry A'   KE= 4.567052305374D+02
 Symmetry A"   KE= 3.866322599518D+02
 No NMR shielding tensors so no spin-rotation constants.
 Leave Link  601 at Wed Sep 27 17:17:18 2023, MaxMem=  3221225472 cpu:              19.2 elap:               0.5
 (Enter /home/center/opt/aarch64/apps/gaussian16/c01/g16/l122.exe)
 CPIOFr:  IOpCl= 0 IRwI=-1 IRwCP=  731 ICalc=  4 LCPTot=     1419224 Len1MO=     3708034 IndFrg=    19959394
 Restoring MOs from calculation   1 to rwf.
 CPIOFr:  IOpCl= 0 IRwI=-2 IRwCP=  731 ICalc=  0 LCPTot=     1419224 Len1MO=     3708034 IndFrg=     5127258
 Counterpoise corrected energy =   -1694.040399216829
                   BSSE energy =      -0.000001266001
              sum of fragments =   -1694.039683044256
           complexation energy =      -0.45 kcal/mole (raw)
           complexation energy =      -0.45 kcal/mole (corrected)
 Leave Link  122 at Wed Sep 27 17:17:21 2023, MaxMem=  3221225472 cpu:               8.3 elap:               0.3
 (Enter /home/center/opt/aarch64/apps/gaussian16/c01/g16/l9999.exe)

 Test job not archived.
 1\1\GINC-FX0478\SP\RB3LYP\6-311G(d,p)\C44H28\Z40145W\27-Sep-2023\0\\#P
  TEST b3lyp/6-311G** EmpiricalDispersion=GD3 counterpoise=2\\pentacene
 _A1=0_A2=0_A3=45_p2\\0,1\C,0,-0.5039478476,0.5239478476,-3.6612755801\
 C,0,0.5239480325,-0.5039480325,-3.6612755629\C,0,-0.9861248463,1.00612
 48463,-4.9235927708\C,0,1.0061250889,-0.9861250889,-4.9235926697\C,0,-
 0.4963213507,0.5163213507,-6.096356521\C,0,0.5163216812,-0.4963216812,
 -6.0963564796\C,0,-0.9844684311,1.0044684311,-2.4533174875\C,0,-0.5044
 88426,0.524488426,-1.2140288145\C,0,1.0044685359,-0.9844685359,-2.4533
 173917\C,0,0.5244885437,-0.5044885437,-1.2140288362\H,0,-1.7533559667,
 1.7733559667,-4.9232600459\H,0,-1.7521866813,1.7721866813,-2.453928581
 5\H,0,1.7721859268,-1.7521859268,-2.4539284818\H,0,1.7733558421,-1.753
 3558421,-4.9232597785\H,0,0.8905568758,-0.8705568758,-7.0425276922\H,0
 ,-0.8705565046,0.8905565046,-7.042527775\C,0,-0.9848184961,1.004818496
 1,0.0099998782\C,0,-0.5044883957,0.5244883957,1.2340295553\C,0,1.00481
 85643,-0.9848185643,0.0099998696\C,0,0.5244885146,-0.5044885146,1.2340
 295261\H,0,-1.7524699697,1.7724699697,0.0099999205\H,0,1.772468921,-1.
 752468921,0.0099999641\C,0,-0.9844683048,1.0044683048,2.4733171385\C,0
 ,-0.5039477114,0.5239477114,3.681276331\C,0,1.0044684211,-0.9844684211
 ,2.4733170835\C,0,0.5239479079,-0.5039479079,3.6812763217\H,0,-1.75218
 65527,1.7721865527,2.4739285326\H,0,1.7721858092,-1.7521858092,2.47392
 83796\C,0,-0.9861245177,1.0061245177,4.9435920588\C,0,-0.4963209372,0.
 5163209372,6.116356633\C,0,1.0061247659,-0.9861247659,4.9435919377\C,0
 ,0.5163212637,-0.4963212637,6.1163566075\H,0,-1.7533556504,1.773355650
 4,4.9432601504\H,0,-0.8705567426,0.8905567426,7.0625274368\H,0,0.89055
 70967,-0.8705570967,7.0625272142\H,0,1.7733555414,-1.7533555414,4.9432
 599297\C,0,8.9960521524,0.5239478476,-3.6612755801\C,0,10.0239480325,-
 0.5039480325,-3.6612755629\C,0,8.5138751537,1.0061248463,-4.9235927708
 \C,0,10.5061250889,-0.9861250889,-4.9235926697\C,0,9.0036786493,0.5163
 213507,-6.096356521\C,0,10.0163216812,-0.4963216812,-6.0963564796\C,0,
 8.5155315689,1.0044684311,-2.4533174875\C,0,8.995511574,0.524488426,-1
 .2140288145\C,0,10.5044685359,-0.9844685359,-2.4533173917\C,0,10.02448
 85437,-0.5044885437,-1.2140288362\H,0,7.7466440333,1.7733559667,-4.923
 2600459\H,0,7.7478133187,1.7721866813,-2.4539285815\H,0,11.2721859268,
 -1.7521859268,-2.4539284818\H,0,11.2733558421,-1.7533558421,-4.9232597
 785\H,0,10.3905568758,-0.8705568758,-7.0425276922\H,0,8.6294434954,0.8
 905565046,-7.042527775\C,0,8.5151815039,1.0048184961,0.0099998782\C,0,
 8.9955116043,0.5244883957,1.2340295553\C,0,10.5048185643,-0.9848185643
 ,0.0099998696\C,0,10.0244885146,-0.5044885146,1.2340295261\H,0,7.74753
 00303,1.7724699697,0.0099999205\H,0,11.272468921,-1.752468921,0.009999
 9641\C,0,8.5155316952,1.0044683048,2.4733171385\C,0,8.9960522886,0.523
 9477114,3.681276331\C,0,10.5044684211,-0.9844684211,2.4733170835\C,0,1
 0.0239479079,-0.5039479079,3.6812763217\H,0,7.7478134473,1.7721865527,
 2.4739285326\H,0,11.2721858092,-1.7521858092,2.4739283796\C,0,8.513875
 4823,1.0061245177,4.9435920588\C,0,9.0036790628,0.5163209372,6.1163566
 33\C,0,10.5061247659,-0.9861247659,4.9435919377\C,0,10.0163212637,-0.4
 963212637,6.1163566075\H,0,7.7466443496,1.7733556504,4.9432601504\H,0,
 8.6294432574,0.8905567426,7.0625274368\H,0,10.3905570967,-0.8705570967
 ,7.0625272142\H,0,11.2733555414,-1.7533555414,4.9432599297\\Version=Fu
 jitsu-Arm-G16RevC.01\State=1-A'\HF=-847.0198415\RMSD=3.182e-09\Dipole=
 0.0000222,-0.0000221,0.\Quadrupole=-7.6759624,-6.7547486,14.430711,-18
 .5422722,0.,0.\PG=CS [SG(C4H4),X(C40H24)]\\@


 A COMPLEXITY IS MERELY A DISARRANGEMENT OF SIMPLICITIES.

                                    -- G. O. ABELL IN "EXPLORATION OF THE UNIVERSE"
 Job cpu time:       0 days  2 hours 34 minutes 56.1 seconds.
 Elapsed time:       0 days  0 hours  4 minutes  5.6 seconds.
 File lengths (MBytes):  RWF=    718 Int=      0 D2E=      0 Chk=    208 Scr=      1
 Normal termination of Gaussian 16 at Wed Sep 27 17:17:26 2023.
