 Entering Gaussian System, Link 0=g16
 Initial command:
 /home/center/opt/aarch64/apps/gaussian16/c01/g16/l1.exe "/data/tmp/Gtmp/1006982/Gau-49.inp" -scrdir="/data/tmp/Gtmp/1006982/"
 Entering Link 1 = /home/center/opt/aarch64/apps/gaussian16/c01/g16/l1.exe PID=        50.
  
 Copyright (c) 1988-2019, Gaussian, Inc.  All Rights Reserved.
  
 This is part of the Gaussian(R) 16 program.  It is based on
 the Gaussian(R) 09 system (copyright 2009, Gaussian, Inc.),
 the Gaussian(R) 03 system (copyright 2003, Gaussian, Inc.),
 the Gaussian(R) 98 system (copyright 1998, Gaussian, Inc.),
 the Gaussian(R) 94 system (copyright 1995, Gaussian, Inc.),
 the Gaussian 92(TM) system (copyright 1992, Gaussian, Inc.),
 the Gaussian 90(TM) system (copyright 1990, Gaussian, Inc.),
 the Gaussian 88(TM) system (copyright 1988, Gaussian, Inc.),
 the Gaussian 86(TM) system (copyright 1986, Carnegie Mellon
 University), and the Gaussian 82(TM) system (copyright 1983,
 Carnegie Mellon University). Gaussian is a federally registered
 trademark of Gaussian, Inc.
  
 This software contains proprietary and confidential information,
 including trade secrets, belonging to Gaussian, Inc.
  
 This software is provided under written license and may be
 used, copied, transmitted, or stored only in accord with that
 written license.
  
 The following legend is applicable only to US Government
 contracts under FAR:
  
                    RESTRICTED RIGHTS LEGEND
  
 Use, reproduction and disclosure by the US Government is
 subject to restrictions as set forth in subparagraphs (a)
 and (c) of the Commercial Computer Software - Restricted
 Rights clause in FAR 52.227-19.
  
 Gaussian, Inc.
 340 Quinnipiac St., Bldg. 40, Wallingford CT 06492
  
  
 ---------------------------------------------------------------
 Warning -- This program may not be used in any manner that
 competes with the business of Gaussian, Inc. or will provide
 assistance to any competitor of Gaussian, Inc.  The licensee
 of this program is prohibited from giving any competitor of
 Gaussian, Inc. access to this program.  By using this program,
 the user acknowledges that Gaussian, Inc. is engaged in the
 business of creating and licensing software in the field of
 computational chemistry and represents and warrants to the
 licensee that it is not a competitor of Gaussian, Inc. and that
 it will not use this program in any manner prohibited above.
 ---------------------------------------------------------------
  

 Cite this work as:
 Gaussian 16, Revision C.01,
 M. J. Frisch, G. W. Trucks, H. B. Schlegel, G. E. Scuseria, 
 M. A. Robb, J. R. Cheeseman, G. Scalmani, V. Barone, 
 G. A. Petersson, H. Nakatsuji, X. Li, M. Caricato, A. V. Marenich, 
 J. Bloino, B. G. Janesko, R. Gomperts, B. Mennucci, H. P. Hratchian, 
 J. V. Ortiz, A. F. Izmaylov, J. L. Sonnenberg, D. Williams-Young, 
 F. Ding, F. Lipparini, F. Egidi, J. Goings, B. Peng, A. Petrone, 
 T. Henderson, D. Ranasinghe, V. G. Zakrzewski, J. Gao, N. Rega, 
 G. Zheng, W. Liang, M. Hada, M. Ehara, K. Toyota, R. Fukuda, 
 J. Hasegawa, M. Ishida, T. Nakajima, Y. Honda, O. Kitao, H. Nakai, 
 T. Vreven, K. Throssell, J. A. Montgomery, Jr., J. E. Peralta, 
 F. Ogliaro, M. J. Bearpark, J. J. Heyd, E. N. Brothers, K. N. Kudin, 
 V. N. Staroverov, T. A. Keith, R. Kobayashi, J. Normand, 
 K. Raghavachari, A. P. Rendell, J. C. Burant, S. S. Iyengar, 
 J. Tomasi, M. Cossi, J. M. Millam, M. Klene, C. Adamo, R. Cammi, 
 J. W. Ochterski, R. L. Martin, K. Morokuma, O. Farkas, 
 J. B. Foresman, and D. J. Fox, Gaussian, Inc., Wallingford CT, 2019.
 
 ************************************************
 Gaussian 16:  Fujitsu-Arm-G16RevC.01  3-Jul-2019
                   27-Sep-2023 
 ************************************************
 %mem=24GB
 %nproc=42
 Will use up to   42 processors via shared memory.
 -------------------------------------------------------------
 #P TEST b3lyp/6-311G** EmpiricalDispersion=GD3 counterpoise=2
 -------------------------------------------------------------
 1/38=1,62=2,172=1/1;
 2/12=2,17=6,18=5,40=1/2;
 1/38=1,53=2,62=2,63=1/22;
 3/5=4,6=6,7=101,11=2,25=1,30=1,74=-5,124=31/1,2,3;
 4//1;
 5/5=2,38=5/2;
 6/7=2,8=2,9=2,10=2,28=1/1;
 1/53=2,62=2,63=1/22;
 3/5=7,6=11,7=101,11=2,25=1,30=1,74=-5,82=7,124=31/1,2,3;
 4//1;
 5/5=2,38=5/2;
 6/7=2,8=2,9=2,10=2,28=1/1;
 1/53=2,62=2,63=1/22(-4);
 99/5=1,9=1/99;
 Leave Link    1 at Wed Sep 27 16:57:26 2023, MaxMem=  3221225472 cpu:               6.7 elap:               0.2
 (Enter /home/center/opt/aarch64/apps/gaussian16/c01/g16/l101.exe)
 ----------------------------
 pentacene_A1=0_A2=0_A3=45_t1
 ----------------------------
 Symbolic Z-matrix:
 Charge =  0 Multiplicity = 1 in supermolecule
 Charge =  0 Multiplicity = 1 in fragment      1.
 Charge =  0 Multiplicity = 1 in fragment      2.
 C(Fragment=1)        -0.50395   0.52395  -3.66128 
 C(Fragment=1)         0.52395  -0.50395  -3.66128 
 C(Fragment=1)        -0.98612   1.00612  -4.92359 
 C(Fragment=1)         1.00613  -0.98613  -4.92359 
 C(Fragment=1)        -0.49632   0.51632  -6.09636 
 C(Fragment=1)         0.51632  -0.49632  -6.09636 
 C(Fragment=1)        -0.98447   1.00447  -2.45332 
 C(Fragment=1)        -0.50449   0.52449  -1.21403 
 C(Fragment=1)         1.00447  -0.98447  -2.45332 
 C(Fragment=1)         0.52449  -0.50449  -1.21403 
 H(Fragment=1)        -1.75336   1.77336  -4.92326 
 H(Fragment=1)        -1.75219   1.77219  -2.45393 
 H(Fragment=1)         1.77219  -1.75219  -2.45393 
 H(Fragment=1)         1.77336  -1.75336  -4.92326 
 H(Fragment=1)         0.89056  -0.87056  -7.04253 
 H(Fragment=1)        -0.87056   0.89056  -7.04253 
 C(Fragment=1)        -0.98482   1.00482   0.01 
 C(Fragment=1)        -0.50449   0.52449   1.23403 
 C(Fragment=1)         1.00482  -0.98482   0.01 
 C(Fragment=1)         0.52449  -0.50449   1.23403 
 H(Fragment=1)        -1.75247   1.77247   0.01 
 H(Fragment=1)         1.77247  -1.75247   0.01 
 C(Fragment=1)        -0.98447   1.00447   2.47332 
 C(Fragment=1)        -0.50395   0.52395   3.68128 
 C(Fragment=1)         1.00447  -0.98447   2.47332 
 C(Fragment=1)         0.52395  -0.50395   3.68128 
 H(Fragment=1)        -1.75219   1.77219   2.47393 
 H(Fragment=1)         1.77219  -1.75219   2.47393 
 C(Fragment=1)        -0.98612   1.00612   4.94359 
 C(Fragment=1)        -0.49632   0.51632   6.11636 
 C(Fragment=1)         1.00612  -0.98612   4.94359 
 C(Fragment=1)         0.51632  -0.49632   6.11636 
 H(Fragment=1)        -1.75336   1.77336   4.94326 
 H(Fragment=1)        -0.87056   0.89056   7.06253 
 H(Fragment=1)         0.89056  -0.87056   7.06253 
 H(Fragment=1)         1.77336  -1.75336   4.94326 
 C(Fragment=2)         4.77395   3.77395  -3.66128 
 C(Fragment=2)         3.74605   2.74605  -3.66128 
 C(Fragment=2)         5.25612   4.25612  -4.92359 
 C(Fragment=2)         3.26387   2.26387  -4.92359 
 C(Fragment=2)         4.76632   3.76632  -6.09636 
 C(Fragment=2)         3.75368   2.75368  -6.09636 
 C(Fragment=2)         5.25447   4.25447  -2.45332 
 C(Fragment=2)         4.77449   3.77449  -1.21403 
 C(Fragment=2)         3.26553   2.26553  -2.45332 
 C(Fragment=2)         3.74551   2.74551  -1.21403 
 H(Fragment=2)         6.02336   5.02336  -4.92326 
 H(Fragment=2)         6.02219   5.02219  -2.45393 
 H(Fragment=2)         2.49781   1.49781  -2.45393 
 H(Fragment=2)         2.49664   1.49664  -4.92326 
 H(Fragment=2)         3.37944   2.37944  -7.04253 
 H(Fragment=2)         5.14056   4.14056  -7.04253 
 C(Fragment=2)         5.25482   4.25482   0.01 
 C(Fragment=2)         4.77449   3.77449   1.23403 
 C(Fragment=2)         3.26518   2.26518   0.01 
 C(Fragment=2)         3.74551   2.74551   1.23403 
 H(Fragment=2)         6.02247   5.02247   0.01 
 H(Fragment=2)         2.49753   1.49753   0.01 
 C(Fragment=2)         5.25447   4.25447   2.47332 
 C(Fragment=2)         4.77395   3.77395   3.68128 
 C(Fragment=2)         3.26553   2.26553   2.47332 
 C(Fragment=2)         3.74605   2.74605   3.68128 
 H(Fragment=2)         6.02219   5.02219   2.47393 
 H(Fragment=2)         2.49781   1.49781   2.47393 
 C(Fragment=2)         5.25612   4.25612   4.94359 
 C(Fragment=2)         4.76632   3.76632   6.11636 
 C(Fragment=2)         3.26388   2.26388   4.94359 
 C(Fragment=2)         3.75368   2.75368   6.11636 
 H(Fragment=2)         6.02336   5.02336   4.94326 
 H(Fragment=2)         5.14056   4.14056   7.06253 
 H(Fragment=2)         3.37944   2.37944   7.06253 
 H(Fragment=2)         2.49664   1.49664   4.94326 
 
 ITRead=  0  0  0  0  0  0  0  0  0  0  0  0  0  0  0  0  0  0  0  0
 ITRead=  0  0  0  0  0  0  0  0  0  0  0  0  0  0  0  0  0  0  0  0
 ITRead=  0  0  0  0  0  0  0  0  0  0  0  0  0  0  0  0  0  0  0  0
 ITRead=  0  0  0  0  0  0  0  0  0  0  0  0
 MicOpt= -1 -1 -1 -1 -1 -1 -1 -1 -1 -1 -1 -1 -1 -1 -1 -1 -1 -1 -1 -1
 MicOpt= -1 -1 -1 -1 -1 -1 -1 -1 -1 -1 -1 -1 -1 -1 -1 -1 -1 -1 -1 -1
 MicOpt= -1 -1 -1 -1 -1 -1 -1 -1 -1 -1 -1 -1 -1 -1 -1 -1 -1 -1 -1 -1
 MicOpt= -1 -1 -1 -1 -1 -1 -1 -1 -1 -1 -1 -1
 NAtoms=     72 NQM=       72 NQMF=       0 NMMI=      0 NMMIF=      0
                NMic=       0 NMicF=      0.
                    Isotopes and Nuclear Properties:
 (Nuclear quadrupole moments (NQMom) in fm**2, nuclear magnetic moments (NMagM)
  in nuclear magnetons)

  Atom         1           2           3           4           5           6           7           8           9          10
 IAtWgt=          12          12          12          12          12          12          12          12          12          12
 AtmWgt=  12.0000000  12.0000000  12.0000000  12.0000000  12.0000000  12.0000000  12.0000000  12.0000000  12.0000000  12.0000000
 NucSpn=           0           0           0           0           0           0           0           0           0           0
 AtZEff=   0.0000000   0.0000000   0.0000000   0.0000000   0.0000000   0.0000000   0.0000000   0.0000000   0.0000000   0.0000000
 NQMom=    0.0000000   0.0000000   0.0000000   0.0000000   0.0000000   0.0000000   0.0000000   0.0000000   0.0000000   0.0000000
 NMagM=    0.0000000   0.0000000   0.0000000   0.0000000   0.0000000   0.0000000   0.0000000   0.0000000   0.0000000   0.0000000
 AtZNuc=   6.0000000   6.0000000   6.0000000   6.0000000   6.0000000   6.0000000   6.0000000   6.0000000   6.0000000   6.0000000

  Atom        11          12          13          14          15          16          17          18          19          20
 IAtWgt=           1           1           1           1           1           1          12          12          12          12
 AtmWgt=   1.0078250   1.0078250   1.0078250   1.0078250   1.0078250   1.0078250  12.0000000  12.0000000  12.0000000  12.0000000
 NucSpn=           1           1           1           1           1           1           0           0           0           0
 AtZEff=   0.0000000   0.0000000   0.0000000   0.0000000   0.0000000   0.0000000   0.0000000   0.0000000   0.0000000   0.0000000
 NQMom=    0.0000000   0.0000000   0.0000000   0.0000000   0.0000000   0.0000000   0.0000000   0.0000000   0.0000000   0.0000000
 NMagM=    2.7928460   2.7928460   2.7928460   2.7928460   2.7928460   2.7928460   0.0000000   0.0000000   0.0000000   0.0000000
 AtZNuc=   1.0000000   1.0000000   1.0000000   1.0000000   1.0000000   1.0000000   6.0000000   6.0000000   6.0000000   6.0000000

  Atom        21          22          23          24          25          26          27          28          29          30
 IAtWgt=           1           1          12          12          12          12           1           1          12          12
 AtmWgt=   1.0078250   1.0078250  12.0000000  12.0000000  12.0000000  12.0000000   1.0078250   1.0078250  12.0000000  12.0000000
 NucSpn=           1           1           0           0           0           0           1           1           0           0
 AtZEff=   0.0000000   0.0000000   0.0000000   0.0000000   0.0000000   0.0000000   0.0000000   0.0000000   0.0000000   0.0000000
 NQMom=    0.0000000   0.0000000   0.0000000   0.0000000   0.0000000   0.0000000   0.0000000   0.0000000   0.0000000   0.0000000
 NMagM=    2.7928460   2.7928460   0.0000000   0.0000000   0.0000000   0.0000000   2.7928460   2.7928460   0.0000000   0.0000000
 AtZNuc=   1.0000000   1.0000000   6.0000000   6.0000000   6.0000000   6.0000000   1.0000000   1.0000000   6.0000000   6.0000000

  Atom        31          32          33          34          35          36          37          38          39          40
 IAtWgt=          12          12           1           1           1           1          12          12          12          12
 AtmWgt=  12.0000000  12.0000000   1.0078250   1.0078250   1.0078250   1.0078250  12.0000000  12.0000000  12.0000000  12.0000000
 NucSpn=           0           0           1           1           1           1           0           0           0           0
 AtZEff=   0.0000000   0.0000000   0.0000000   0.0000000   0.0000000   0.0000000   0.0000000   0.0000000   0.0000000   0.0000000
 NQMom=    0.0000000   0.0000000   0.0000000   0.0000000   0.0000000   0.0000000   0.0000000   0.0000000   0.0000000   0.0000000
 NMagM=    0.0000000   0.0000000   2.7928460   2.7928460   2.7928460   2.7928460   0.0000000   0.0000000   0.0000000   0.0000000
 AtZNuc=   6.0000000   6.0000000   1.0000000   1.0000000   1.0000000   1.0000000   6.0000000   6.0000000   6.0000000   6.0000000

  Atom        41          42          43          44          45          46          47          48          49          50
 IAtWgt=          12          12          12          12          12          12           1           1           1           1
 AtmWgt=  12.0000000  12.0000000  12.0000000  12.0000000  12.0000000  12.0000000   1.0078250   1.0078250   1.0078250   1.0078250
 NucSpn=           0           0           0           0           0           0           1           1           1           1
 AtZEff=   0.0000000   0.0000000   0.0000000   0.0000000   0.0000000   0.0000000   0.0000000   0.0000000   0.0000000   0.0000000
 NQMom=    0.0000000   0.0000000   0.0000000   0.0000000   0.0000000   0.0000000   0.0000000   0.0000000   0.0000000   0.0000000
 NMagM=    0.0000000   0.0000000   0.0000000   0.0000000   0.0000000   0.0000000   2.7928460   2.7928460   2.7928460   2.7928460
 AtZNuc=   6.0000000   6.0000000   6.0000000   6.0000000   6.0000000   6.0000000   1.0000000   1.0000000   1.0000000   1.0000000

  Atom        51          52          53          54          55          56          57          58          59          60
 IAtWgt=           1           1          12          12          12          12           1           1          12          12
 AtmWgt=   1.0078250   1.0078250  12.0000000  12.0000000  12.0000000  12.0000000   1.0078250   1.0078250  12.0000000  12.0000000
 NucSpn=           1           1           0           0           0           0           1           1           0           0
 AtZEff=   0.0000000   0.0000000   0.0000000   0.0000000   0.0000000   0.0000000   0.0000000   0.0000000   0.0000000   0.0000000
 NQMom=    0.0000000   0.0000000   0.0000000   0.0000000   0.0000000   0.0000000   0.0000000   0.0000000   0.0000000   0.0000000
 NMagM=    2.7928460   2.7928460   0.0000000   0.0000000   0.0000000   0.0000000   2.7928460   2.7928460   0.0000000   0.0000000
 AtZNuc=   1.0000000   1.0000000   6.0000000   6.0000000   6.0000000   6.0000000   1.0000000   1.0000000   6.0000000   6.0000000

  Atom        61          62          63          64          65          66          67          68          69          70
 IAtWgt=          12          12           1           1          12          12          12          12           1           1
 AtmWgt=  12.0000000  12.0000000   1.0078250   1.0078250  12.0000000  12.0000000  12.0000000  12.0000000   1.0078250   1.0078250
 NucSpn=           0           0           1           1           0           0           0           0           1           1
 AtZEff=   0.0000000   0.0000000   0.0000000   0.0000000   0.0000000   0.0000000   0.0000000   0.0000000   0.0000000   0.0000000
 NQMom=    0.0000000   0.0000000   0.0000000   0.0000000   0.0000000   0.0000000   0.0000000   0.0000000   0.0000000   0.0000000
 NMagM=    0.0000000   0.0000000   2.7928460   2.7928460   0.0000000   0.0000000   0.0000000   0.0000000   2.7928460   2.7928460
 AtZNuc=   6.0000000   6.0000000   1.0000000   1.0000000   6.0000000   6.0000000   6.0000000   6.0000000   1.0000000   1.0000000

  Atom        71          72
 IAtWgt=           1           1
 AtmWgt=   1.0078250   1.0078250
 NucSpn=           1           1
 AtZEff=   0.0000000   0.0000000
 NQMom=    0.0000000   0.0000000
 NMagM=    2.7928460   2.7928460
 AtZNuc=   1.0000000   1.0000000
 Leave Link  101 at Wed Sep 27 16:57:28 2023, MaxMem=  3221225472 cpu:               2.5 elap:               0.1
 (Enter /home/center/opt/aarch64/apps/gaussian16/c01/g16/l202.exe)
 Stoichiometry    C44H28
 Framework group  CS[SG(C4H4),X(C40H24)]
 Deg. of freedom   109
 Full point group                 CS      NOp   2
 Largest Abelian subgroup         CS      NOp   2
 Largest concise Abelian subgroup CS      NOp   2
                         Standard orientation:                         
 ---------------------------------------------------------------------
 Center     Atomic      Atomic             Coordinates (Angstroms)
 Number     Number       Type             X           Y           Z
 ---------------------------------------------------------------------
      1          6           0        1.080385   -2.651650    3.671276
      2          6           0       -0.373279   -2.651650    3.671276
      3          6           0        1.762287   -2.651650    4.933593
      4          6           0       -1.055180   -2.651650    4.933593
      5          6           0        1.069600   -2.651650    6.106357
      6          6           0       -0.362494   -2.651650    6.106357
      7          6           0        1.759944   -2.651650    2.463318
      8          6           0        1.081150   -2.651650    1.224029
      9          6           0       -1.052837   -2.651650    2.463317
     10          6           0       -0.374043   -2.651650    1.224029
     11          1           0        2.847315   -2.651650    4.933260
     12          1           0        2.845662   -2.651650    2.463929
     13          1           0       -2.138554   -2.651650    2.463929
     14          1           0       -2.140208   -2.651650    4.933260
     15          1           0       -0.891742   -2.651650    7.052528
     16          1           0        1.598848   -2.651650    7.052528
     17          6           0        1.760439   -2.651650    0.000000
     18          6           0        1.081150   -2.651650   -1.224029
     19          6           0       -1.053332   -2.651650    0.000000
     20          6           0       -0.374043   -2.651650   -1.224029
     21          1           0        2.846062   -2.651650    0.000000
     22          1           0       -2.138954   -2.651650    0.000000
     23          6           0        1.759944   -2.651650   -2.463318
     24          6           0        1.080385   -2.651650   -3.671276
     25          6           0       -1.052837   -2.651650   -2.463317
     26          6           0       -0.373279   -2.651650   -3.671276
     27          1           0        2.845662   -2.651650   -2.463929
     28          1           0       -2.138554   -2.651650   -2.463929
     29          6           0        1.762287   -2.651650   -4.933593
     30          6           0        1.069600   -2.651650   -6.106357
     31          6           0       -1.055180   -2.651650   -4.933593
     32          6           0       -0.362494   -2.651650   -6.106357
     33          1           0        2.847315   -2.651650   -4.933260
     34          1           0        1.598848   -2.651650   -7.052528
     35          1           0       -0.891742   -2.651650   -7.052528
     36          1           0       -2.140208   -2.651650   -4.933260
     37          6           0       -0.353553    3.378482    3.671276
     38          6           0       -0.353553    1.924818    3.671276
     39          6           0       -0.353553    4.060384    4.933593
     40          6           0       -0.353553    1.242917    4.933593
     41          6           0       -0.353553    3.367697    6.106357
     42          6           0       -0.353553    1.935603    6.106357
     43          6           0       -0.353553    4.058041    2.463318
     44          6           0       -0.353553    3.379247    1.224029
     45          6           0       -0.353553    1.245260    2.463317
     46          6           0       -0.353553    1.924054    1.224029
     47          1           0       -0.353553    5.145412    4.933260
     48          1           0       -0.353553    5.143759    2.463929
     49          1           0       -0.353553    0.159543    2.463929
     50          1           0       -0.353553    0.157889    4.933260
     51          1           0       -0.353553    1.406355    7.052528
     52          1           0       -0.353553    3.896945    7.052528
     53          6           0       -0.353553    4.058536    0.000000
     54          6           0       -0.353553    3.379247   -1.224029
     55          6           0       -0.353553    1.244765    0.000000
     56          6           0       -0.353553    1.924054   -1.224029
     57          1           0       -0.353553    5.144159    0.000000
     58          1           0       -0.353553    0.159143    0.000000
     59          6           0       -0.353553    4.058041   -2.463318
     60          6           0       -0.353553    3.378482   -3.671276
     61          6           0       -0.353553    1.245260   -2.463317
     62          6           0       -0.353553    1.924818   -3.671276
     63          1           0       -0.353553    5.143759   -2.463929
     64          1           0       -0.353553    0.159543   -2.463929
     65          6           0       -0.353553    4.060384   -4.933593
     66          6           0       -0.353553    3.367697   -6.106357
     67          6           0       -0.353553    1.242917   -4.933593
     68          6           0       -0.353553    1.935603   -6.106357
     69          1           0       -0.353553    5.145412   -4.933260
     70          1           0       -0.353553    3.896945   -7.052528
     71          1           0       -0.353553    1.406355   -7.052528
     72          1           0       -0.353553    0.157889   -4.933260
 ---------------------------------------------------------------------
 Rotational constants (GHZ):           0.1065219           0.0563744           0.0390401
 Leave Link  202 at Wed Sep 27 16:57:30 2023, MaxMem=  3221225472 cpu:               0.6 elap:               0.0
 (Enter /home/center/opt/aarch64/apps/gaussian16/c01/g16/l122.exe)
 Counterpoise: doing full-system calculation.
 Leave Link  122 at Wed Sep 27 16:57:33 2023, MaxMem=  3221225472 cpu:               0.2 elap:               0.0
 (Enter /home/center/opt/aarch64/apps/gaussian16/c01/g16/l301.exe)
 Standard basis: 6-311G(d,p) (5D, 7F)
 Ernie: Thresh=  0.10000D-02 Tol=  0.10000D-05 Strict=F.
 There are   528 symmetry adapted cartesian basis functions of A'  symmetry.
 There are   476 symmetry adapted cartesian basis functions of A"  symmetry.
 There are   504 symmetry adapted basis functions of A'  symmetry.
 There are   456 symmetry adapted basis functions of A"  symmetry.
   960 basis functions,  1632 primitive gaussians,  1004 cartesian basis functions
   146 alpha electrons      146 beta electrons
       nuclear repulsion energy      4620.2354402483 Hartrees.
 IExCor=  402 DFT=T Ex+Corr=B3LYP ExCW=0 ScaHFX=  0.200000
 ScaDFX=  0.800000  0.720000  1.000000  0.810000 ScalE2=  1.000000  1.000000
 IRadAn=      5 IRanWt=     -1 IRanGd=            0 ICorTp=0 IEmpDi=131
 NAtoms=   72 NActive=   72 NUniq=   40 SFac= 3.24D+00 NAtFMM=   60 NAOKFM=T Big=F
 Integral buffers will be    131072 words long.
 Raffenetti 2 integral format.
 Two-electron integral symmetry is turned on.
 R6Disp:  Grimme-D3 Dispersion energy=       -0.0803090868 Hartrees.
 Nuclear repulsion after empirical dispersion term =     4620.1551311615 Hartrees.
 Leave Link  301 at Wed Sep 27 16:57:35 2023, MaxMem=  3221225472 cpu:               1.8 elap:               0.1
 (Enter /home/center/opt/aarch64/apps/gaussian16/c01/g16/l302.exe)
 NPDir=0 NMtPBC=     1 NCelOv=     1 NCel=       1 NClECP=     1 NCelD=      1
         NCelK=      1 NCelE2=     1 NClLst=     1 CellRange=     0.0.
 One-electron integrals computed using PRISM.
 One-electron integral symmetry used in STVInt
 NBasis=   960 RedAO= T EigKep=  3.78D-05  NBF=   504   456
 NBsUse=   960 1.00D-06 EigRej= -1.00D+00 NBFU=   504   456
 Precomputing XC quadrature grid using
 IXCGrd= 4 IRadAn=           5 IRanWt=          -1 IRanGd=           0 AccXCQ= 0.00D+00.
 Generated NRdTot=       0 NPtTot=           0 NUsed=           0 NTot=          32
 NSgBfM=   991   991   991   991   991 MxSgAt=    72 MxSgA2=    72.
 Leave Link  302 at Wed Sep 27 16:57:39 2023, MaxMem=  3221225472 cpu:              65.2 elap:               2.1
 (Enter /home/center/opt/aarch64/apps/gaussian16/c01/g16/l303.exe)
 DipDrv:  MaxL=1.
 Leave Link  303 at Wed Sep 27 16:57:42 2023, MaxMem=  3221225472 cpu:              13.7 elap:               0.4
 (Enter /home/center/opt/aarch64/apps/gaussian16/c01/g16/l401.exe)
 ExpMin= 1.03D-01 ExpMax= 4.56D+03 ExpMxC= 6.82D+02 IAcc=3 IRadAn=         5 AccDes= 0.00D+00
 Harris functional with IExCor=  402 and IRadAn=       5 diagonalized for initial guess.
 HarFok:  IExCor=  402 AccDes= 0.00D+00 IRadAn=         5 IDoV= 1 UseB2=F ITyADJ=14
 ICtDFT=  3500011 ScaDFX=  1.000000  1.000000  1.000000  1.000000
 FoFCou: FMM=F IPFlag=           0 FMFlag=      100000 FMFlg1=        2000
         NFxFlg=           0 DoJE=T BraDBF=F KetDBF=T FulRan=T
         wScrn=  0.000000 ICntrl=       500 IOpCl=  0 I1Cent=   200000004 NGrid=           0
         NMat0=    1 NMatS0=      1 NMatT0=    0 NMatD0=    1 NMtDS0=    0 NMtDT0=    0
 Petite list used in FoFCou.
 Harris En= -1694.13971590459    
 JPrj=0 DoOrth=F DoCkMO=F.
 Initial guess orbital symmetries:
       Occupied  (A") (A') (A") (A') (A') (A") (A') (A") (A") (A')
                 (A") (A') (A") (A') (A") (A') (A") (A') (A") (A')
                 (A") (A') (A") (A') (A') (A') (A') (A') (A") (A')
                 (A") (A') (A") (A') (A") (A') (A") (A') (A") (A')
                 (A') (A") (A') (A") (A') (A') (A") (A") (A') (A')
                 (A") (A") (A') (A') (A') (A') (A") (A") (A') (A')
                 (A") (A") (A") (A") (A') (A') (A') (A') (A") (A")
                 (A") (A") (A') (A') (A") (A") (A') (A') (A') (A')
                 (A') (A') (A") (A") (A") (A") (A") (A") (A') (A')
                 (A') (A') (A") (A") (A') (A') (A') (A') (A") (A")
                 (A') (A') (A") (A") (A") (A") (A') (A') (A') (A')
                 (A") (A") (A') (A') (A") (A") (A') (A') (A") (A")
                 (A") (A") (A') (A') (A') (A') (A") (A") (A') (A')
                 (A") (A") (A') (A') (A") (A") (A') (A') (A') (A')
                 (A") (A") (A") (A") (A') (A')
       Virtual   (A') (A') (A") (A") (A") (A") (A') (A') (A') (A')
                 (A") (A") (A') (A') (A") (A") (A') (A") (A') (A')
                 (A') (A') (A") (A') (A') (A") (A") (A') (A") (A")
                 (A') (A") (A') (A") (A') (A') (A") (A") (A") (A')
                 (A') (A") (A') (A') (A") (A') (A") (A') (A') (A')
                 (A') (A') (A") (A") (A') (A') (A") (A") (A') (A')
                 (A") (A") (A") (A") (A') (A') (A") (A') (A") (A")
                 (A') (A") (A') (A') (A") (A') (A") (A") (A') (A")
                 (A') (A') (A') (A") (A') (A') (A') (A") (A") (A')
                 (A') (A") (A") (A") (A') (A") (A') (A") (A') (A")
                 (A') (A') (A") (A") (A') (A") (A') (A") (A') (A')
                 (A') (A') (A") (A') (A') (A") (A") (A') (A") (A')
                 (A') (A") (A') (A") (A") (A') (A") (A") (A') (A')
                 (A') (A") (A") (A") (A') (A") (A") (A') (A') (A")
                 (A') (A") (A') (A') (A") (A') (A') (A') (A") (A')
                 (A') (A") (A') (A") (A') (A") (A') (A") (A") (A')
                 (A") (A') (A") (A') (A') (A") (A") (A") (A') (A')
                 (A') (A") (A') (A") (A') (A') (A") (A') (A") (A")
                 (A') (A") (A") (A') (A') (A") (A') (A') (A') (A")
                 (A') (A") (A') (A") (A') (A") (A') (A') (A") (A")
                 (A") (A') (A') (A") (A') (A') (A") (A') (A") (A')
                 (A") (A') (A') (A") (A") (A") (A') (A") (A") (A')
                 (A') (A") (A") (A') (A") (A') (A") (A') (A') (A")
                 (A') (A') (A') (A') (A") (A") (A') (A") (A") (A')
                 (A") (A') (A") (A') (A') (A") (A") (A') (A') (A")
                 (A') (A") (A") (A") (A') (A') (A') (A") (A') (A')
                 (A") (A') (A") (A") (A') (A") (A") (A') (A") (A')
                 (A") (A") (A') (A") (A') (A') (A") (A') (A") (A")
                 (A') (A') (A') (A') (A") (A") (A') (A') (A") (A")
                 (A') (A') (A") (A') (A") (A") (A") (A") (A') (A")
                 (A") (A') (A') (A') (A') (A') (A') (A") (A") (A')
                 (A") (A") (A') (A") (A") (A") (A') (A') (A') (A')
                 (A') (A") (A") (A') (A') (A') (A") (A") (A") (A')
                 (A") (A") (A') (A') (A") (A") (A') (A') (A") (A')
                 (A") (A') (A") (A') (A") (A') (A') (A") (A") (A')
                 (A') (A') (A") (A') (A") (A') (A') (A") (A') (A")
                 (A') (A') (A') (A") (A') (A") (A") (A") (A") (A")
                 (A") (A') (A") (A') (A") (A") (A') (A') (A') (A')
                 (A") (A") (A') (A') (A') (A') (A') (A") (A') (A")
                 (A") (A') (A') (A') (A") (A') (A") (A") (A") (A')
                 (A") (A') (A") (A') (A") (A') (A") (A') (A") (A')
                 (A') (A") (A') (A') (A') (A") (A") (A') (A") (A')
                 (A') (A') (A') (A") (A") (A') (A") (A') (A") (A')
                 (A") (A") (A') (A") (A") (A') (A") (A') (A") (A")
                 (A") (A') (A') (A") (A') (A') (A") (A') (A") (A")
                 (A') (A') (A') (A") (A') (A") (A') (A") (A") (A')
                 (A") (A') (A") (A') (A") (A') (A") (A') (A") (A')
                 (A") (A') (A") (A') (A") (A') (A") (A') (A") (A")
                 (A') (A') (A') (A') (A") (A') (A") (A") (A") (A')
                 (A") (A") (A') (A") (A") (A") (A") (A') (A') (A")
                 (A') (A') (A") (A') (A") (A') (A') (A') (A") (A")
                 (A') (A') (A') (A') (A") (A") (A") (A') (A") (A')
                 (A") (A') (A") (A') (A") (A") (A') (A') (A") (A')
                 (A") (A') (A') (A') (A") (A") (A') (A") (A") (A')
                 (A") (A") (A') (A') (A') (A") (A") (A") (A') (A")
                 (A') (A") (A') (A") (A') (A") (A') (A") (A') (A')
                 (A") (A') (A") (A') (A") (A') (A') (A") (A') (A")
                 (A") (A") (A') (A") (A') (A') (A") (A') (A') (A")
                 (A') (A') (A") (A') (A") (A') (A') (A') (A") (A")
                 (A') (A') (A") (A') (A') (A") (A') (A") (A") (A')
                 (A") (A') (A") (A') (A") (A') (A") (A') (A") (A')
                 (A") (A') (A') (A") (A') (A") (A') (A") (A') (A")
                 (A') (A") (A") (A') (A") (A') (A") (A') (A") (A')
                 (A") (A') (A') (A') (A') (A") (A') (A") (A') (A")
                 (A") (A') (A') (A") (A") (A") (A') (A") (A") (A')
                 (A') (A') (A") (A') (A') (A') (A') (A") (A") (A')
                 (A') (A") (A") (A') (A") (A") (A') (A') (A') (A")
                 (A') (A") (A") (A') (A') (A") (A") (A") (A') (A')
                 (A") (A') (A') (A") (A') (A") (A') (A") (A") (A")
                 (A') (A') (A") (A') (A') (A') (A") (A") (A") (A')
                 (A') (A") (A") (A') (A") (A') (A') (A") (A') (A")
                 (A") (A") (A') (A") (A') (A') (A') (A') (A") (A")
                 (A') (A') (A") (A") (A') (A') (A") (A') (A') (A")
                 (A') (A") (A") (A') (A") (A') (A") (A') (A') (A")
                 (A') (A") (A') (A") (A') (A") (A') (A') (A') (A')
                 (A") (A') (A") (A') (A") (A") (A') (A') (A") (A")
                 (A") (A') (A") (A') (A") (A") (A') (A") (A') (A")
                 (A') (A') (A") (A") (A') (A') (A') (A') (A") (A")
                 (A") (A") (A') (A') (A") (A') (A") (A') (A') (A')
                 (A") (A") (A") (A") (A') (A') (A') (A') (A") (A")
                 (A') (A') (A") (A") (A') (A') (A") (A') (A") (A')
                 (A') (A") (A') (A")
 The electronic state of the initial guess is 1-A'.
 Leave Link  401 at Wed Sep 27 16:57:47 2023, MaxMem=  3221225472 cpu:             107.0 elap:               2.8
 (Enter /home/center/opt/aarch64/apps/gaussian16/c01/g16/l502.exe)
 Integral symmetry usage will be decided dynamically.
 Closed shell SCF:
 Using DIIS extrapolation, IDIIS=  1040.
 NGot=  3221225472 LenX=  3219153746 LenY=  3218144726
 Requested convergence on RMS density matrix=1.00D-08 within 128 cycles.
 Requested convergence on MAX density matrix=1.00D-06.
 Requested convergence on             energy=1.00D-06.
 No special actions if energy rises.
 Fock matrices will be formed incrementally for  20 cycles.
 Integral accuracy reduced to 1.0D-05 until final iterations.

 Cycle   1  Pass 0  IDiag  1:
 FoFJK:  IHMeth= 1 ICntrl=       0 DoSepK=F KAlg= 0 I1Cent=           0 FoldK=F
 IRaf= 550000000 NMat=       1 IRICut=       1 DoRegI=T DoRafI=F ISym2E= 1 IDoP0=0 IntGTp=1.
 FoFCou: FMM=F IPFlag=           0 FMFlag=      100000 FMFlg1=        2000
         NFxFlg=           0 DoJE=F BraDBF=F KetDBF=F FulRan=T
         wScrn=  0.000000 ICntrl=         0 IOpCl=  0 I1Cent=           0 NGrid=           0
         NMat0=    1 NMatS0=      1 NMatT0=    0 NMatD0=    1 NMtDS0=    0 NMtDT0=    0
 Petite list used in FoFCou.
 E= -1693.17322410952    
 DIIS: error= 4.50D-02 at cycle   1 NSaved=   1.
 NSaved= 1 IEnMin= 1 EnMin= -1693.17322410952     IErMin= 1 ErrMin= 4.50D-02
 ErrMax= 4.50D-02  0.00D+00 EMaxC= 1.00D-01 BMatC= 8.99D-01 BMatP= 8.99D-01
 IDIUse=3 WtCom= 5.50D-01 WtEn= 4.50D-01
 Coeff-Com:  0.100D+01
 Coeff-En:   0.100D+01
 Coeff:      0.100D+01
 Gap=     0.065 Goal=   None    Shift=    0.000
 GapD=    0.065 DampG=0.500 DampE=0.500 DampFc=0.2500 IDamp=-1.
 Damping current iteration by 2.50D-01
 RMSDP=1.73D-03 MaxDP=8.40D-02              OVMax= 1.55D-01

 Cycle   2  Pass 0  IDiag  1:
 RMSU=  4.19D-04    CP:  9.82D-01
 E= -1693.48245116036     Delta-E=       -0.309227050843 Rises=F Damp=T
 DIIS: error= 2.62D-02 at cycle   2 NSaved=   2.
 NSaved= 2 IEnMin= 2 EnMin= -1693.48245116036     IErMin= 2 ErrMin= 2.62D-02
 ErrMax= 2.62D-02  0.00D+00 EMaxC= 1.00D-01 BMatC= 2.99D-01 BMatP= 8.99D-01
 IDIUse=3 WtCom= 7.38D-01 WtEn= 2.62D-01
 Coeff-Com: -0.121D+01 0.221D+01
 Coeff-En:   0.000D+00 0.100D+01
 Coeff:     -0.895D+00 0.189D+01
 Gap=     0.064 Goal=   None    Shift=    0.000
 RMSDP=7.14D-04 MaxDP=3.35D-02 DE=-3.09D-01 OVMax= 9.49D-02

 Cycle   3  Pass 0  IDiag  1:
 RMSU=  4.44D-04    CP:  9.57D-01  2.28D+00
 E= -1694.04843037697     Delta-E=       -0.565979216607 Rises=F Damp=F
 DIIS: error= 4.71D-03 at cycle   3 NSaved=   3.
 NSaved= 3 IEnMin= 3 EnMin= -1694.04843037697     IErMin= 3 ErrMin= 4.71D-03
 ErrMax= 4.71D-03  0.00D+00 EMaxC= 1.00D-01 BMatC= 1.15D-02 BMatP= 2.99D-01
 IDIUse=3 WtCom= 9.53D-01 WtEn= 4.71D-02
 Coeff-Com: -0.246D+00 0.509D+00 0.737D+00
 Coeff-En:   0.000D+00 0.000D+00 0.100D+01
 Coeff:     -0.235D+00 0.485D+00 0.750D+00
 Gap=     0.068 Goal=   None    Shift=    0.000
 RMSDP=2.39D-04 MaxDP=1.42D-02 DE=-5.66D-01 OVMax= 1.06D-01

 Cycle   4  Pass 0  IDiag  1:
 RMSU=  2.04D-04    CP:  9.59D-01  2.18D+00  7.41D-01
 E= -1694.04326624404     Delta-E=        0.005164132935 Rises=F Damp=F
 DIIS: error= 6.97D-03 at cycle   4 NSaved=   4.
 NSaved= 4 IEnMin= 3 EnMin= -1694.04843037697     IErMin= 3 ErrMin= 4.71D-03
 ErrMax= 6.97D-03  0.00D+00 EMaxC= 1.00D-01 BMatC= 1.42D-02 BMatP= 1.15D-02
 IDIUse=3 WtCom= 1.07D-01 WtEn= 8.93D-01
 Coeff-Com: -0.378D-01 0.108D+00 0.532D+00 0.398D+00
 Coeff-En:   0.000D+00 0.000D+00 0.573D+00 0.427D+00
 Coeff:     -0.405D-02 0.115D-01 0.569D+00 0.424D+00
 Gap=     0.065 Goal=   None    Shift=    0.000
 RMSDP=1.47D-04 MaxDP=9.89D-03 DE= 5.16D-03 OVMax= 8.76D-02

 Cycle   5  Pass 0  IDiag  1:
 RMSU=  7.77D-05    CP:  9.59D-01  2.17D+00  8.15D-01  4.12D-01
 E= -1694.05945338689     Delta-E=       -0.016187142855 Rises=F Damp=F
 DIIS: error= 2.00D-03 at cycle   5 NSaved=   5.
 NSaved= 5 IEnMin= 5 EnMin= -1694.05945338689     IErMin= 5 ErrMin= 2.00D-03
 ErrMax= 2.00D-03  0.00D+00 EMaxC= 1.00D-01 BMatC= 1.02D-03 BMatP= 1.15D-02
 IDIUse=3 WtCom= 9.80D-01 WtEn= 2.00D-02
 Coeff-Com: -0.159D-01 0.341D-01 0.248D+00 0.237D+00 0.496D+00
 Coeff-En:   0.000D+00 0.000D+00 0.000D+00 0.159D-01 0.984D+00
 Coeff:     -0.156D-01 0.335D-01 0.243D+00 0.233D+00 0.506D+00
 Gap=     0.065 Goal=   None    Shift=    0.000
 RMSDP=4.68D-05 MaxDP=3.24D-03 DE=-1.62D-02 OVMax= 3.00D-02

 Cycle   6  Pass 0  IDiag  1:
 RMSU=  2.62D-05    CP:  9.58D-01  2.19D+00  8.24D-01  5.01D-01  5.84D-01
 E= -1694.06031069392     Delta-E=       -0.000857307032 Rises=F Damp=F
 DIIS: error= 1.06D-03 at cycle   6 NSaved=   6.
 NSaved= 6 IEnMin= 6 EnMin= -1694.06031069392     IErMin= 6 ErrMin= 1.06D-03
 ErrMax= 1.06D-03  0.00D+00 EMaxC= 1.00D-01 BMatC= 2.59D-04 BMatP= 1.02D-03
 IDIUse=3 WtCom= 9.89D-01 WtEn= 1.06D-02
 Coeff-Com: -0.589D-02 0.889D-02 0.104D+00 0.114D+00 0.370D+00 0.409D+00
 Coeff-En:   0.000D+00 0.000D+00 0.000D+00 0.000D+00 0.225D+00 0.775D+00
 Coeff:     -0.583D-02 0.880D-02 0.103D+00 0.113D+00 0.368D+00 0.413D+00
 Gap=     0.065 Goal=   None    Shift=    0.000
 RMSDP=2.08D-05 MaxDP=1.54D-03 DE=-8.57D-04 OVMax= 1.26D-02

 Cycle   7  Pass 0  IDiag  1:
 RMSU=  8.74D-06    CP:  9.58D-01  2.20D+00  8.28D-01  4.84D-01  6.58D-01
                    CP:  3.34D-01
 E= -1694.06060203545     Delta-E=       -0.000291341523 Rises=F Damp=F
 DIIS: error= 3.22D-04 at cycle   7 NSaved=   7.
 NSaved= 7 IEnMin= 7 EnMin= -1694.06060203545     IErMin= 7 ErrMin= 3.22D-04
 ErrMax= 3.22D-04  0.00D+00 EMaxC= 1.00D-01 BMatC= 2.01D-05 BMatP= 2.59D-04
 IDIUse=3 WtCom= 9.97D-01 WtEn= 3.22D-03
 Coeff-Com: -0.209D-02 0.248D-02 0.546D-01 0.606D-01 0.215D+00 0.284D+00
 Coeff-Com:  0.386D+00
 Coeff-En:   0.000D+00 0.000D+00 0.000D+00 0.000D+00 0.000D+00 0.387D-01
 Coeff-En:   0.961D+00
 Coeff:     -0.208D-02 0.247D-02 0.544D-01 0.604D-01 0.214D+00 0.283D+00
 Coeff:      0.388D+00
 Gap=     0.065 Goal=   None    Shift=    0.000
 RMSDP=5.49D-06 MaxDP=3.12D-04 DE=-2.91D-04 OVMax= 2.38D-03

 Initial convergence to 1.0D-05 achieved.  Increase integral accuracy.
 Cycle   8  Pass 1  IDiag  1:
 E= -1694.06014517801     Delta-E=        0.000456857438 Rises=F Damp=F
 DIIS: error= 9.11D-04 at cycle   1 NSaved=   1.
 NSaved= 1 IEnMin= 1 EnMin= -1694.06014517801     IErMin= 1 ErrMin= 9.11D-04
 ErrMax= 9.11D-04  0.00D+00 EMaxC= 1.00D-01 BMatC= 5.30D-05 BMatP= 5.30D-05
 IDIUse=3 WtCom= 9.91D-01 WtEn= 9.11D-03
 Coeff-Com:  0.100D+01
 Coeff-En:   0.100D+01
 Coeff:      0.100D+01
 Gap=     0.065 Goal=   None    Shift=    0.000
 RMSDP=5.49D-06 MaxDP=3.12D-04 DE= 4.57D-04 OVMax= 1.89D-03

 Cycle   9  Pass 1  IDiag  1:
 RMSU=  3.72D-04    CP:  9.97D-01
 E= -1694.06019492519     Delta-E=       -0.000049747178 Rises=F Damp=F
 DIIS: error= 1.06D-04 at cycle   2 NSaved=   2.
 NSaved= 2 IEnMin= 2 EnMin= -1694.06019492519     IErMin= 2 ErrMin= 1.06D-04
 ErrMax= 1.06D-04  0.00D+00 EMaxC= 1.00D-01 BMatC= 2.72D-06 BMatP= 5.30D-05
 IDIUse=3 WtCom= 9.99D-01 WtEn= 1.06D-03
 Coeff-Com:  0.613D-01 0.939D+00
 Coeff-En:   0.000D+00 0.100D+01
 Coeff:      0.613D-01 0.939D+00
 Gap=     0.065 Goal=   None    Shift=    0.000
 RMSDP=6.87D-06 MaxDP=4.04D-04 DE=-4.97D-05 OVMax= 3.27D-03

 Cycle  10  Pass 1  IDiag  1:
 RMSU=  5.86D-06    CP:  9.97D-01  1.01D+00
 E= -1694.06018059497     Delta-E=        0.000014330217 Rises=F Damp=F
 DIIS: error= 2.92D-04 at cycle   3 NSaved=   3.
 NSaved= 3 IEnMin= 2 EnMin= -1694.06019492519     IErMin= 2 ErrMin= 1.06D-04
 ErrMax= 2.92D-04  0.00D+00 EMaxC= 1.00D-01 BMatC= 1.42D-05 BMatP= 2.72D-06
 IDIUse=3 WtCom= 3.69D-01 WtEn= 6.31D-01
 Coeff-Com: -0.244D-02 0.700D+00 0.303D+00
 Coeff-En:   0.000D+00 0.783D+00 0.217D+00
 Coeff:     -0.901D-03 0.753D+00 0.248D+00
 Gap=     0.065 Goal=   None    Shift=    0.000
 RMSDP=3.61D-06 MaxDP=2.48D-04 DE= 1.43D-05 OVMax= 2.21D-03

 Cycle  11  Pass 1  IDiag  1:
 RMSU=  1.03D-06    CP:  9.97D-01  1.01D+00  4.10D-01
 E= -1694.06019752436     Delta-E=       -0.000016929384 Rises=F Damp=F
 DIIS: error= 4.01D-05 at cycle   4 NSaved=   4.
 NSaved= 4 IEnMin= 4 EnMin= -1694.06019752436     IErMin= 4 ErrMin= 4.01D-05
 ErrMax= 4.01D-05  0.00D+00 EMaxC= 1.00D-01 BMatC= 5.17D-07 BMatP= 2.72D-06
 IDIUse=1 WtCom= 1.00D+00 WtEn= 0.00D+00
 Coeff-Com: -0.385D-02 0.453D+00 0.131D+00 0.420D+00
 Coeff:     -0.385D-02 0.453D+00 0.131D+00 0.420D+00
 Gap=     0.065 Goal=   None    Shift=    0.000
 RMSDP=7.09D-07 MaxDP=3.61D-05 DE=-1.69D-05 OVMax= 1.75D-04

 Cycle  12  Pass 1  IDiag  1:
 RMSU=  3.93D-07    CP:  9.97D-01  1.01D+00  3.18D-01  7.84D-01
 E= -1694.06019806078     Delta-E=       -0.000000536425 Rises=F Damp=F
 DIIS: error= 5.65D-06 at cycle   5 NSaved=   5.
 NSaved= 5 IEnMin= 5 EnMin= -1694.06019806078     IErMin= 5 ErrMin= 5.65D-06
 ErrMax= 5.65D-06  0.00D+00 EMaxC= 1.00D-01 BMatC= 4.07D-09 BMatP= 5.17D-07
 IDIUse=1 WtCom= 1.00D+00 WtEn= 0.00D+00
 Coeff-Com: -0.222D-02 0.254D+00 0.722D-01 0.248D+00 0.427D+00
 Coeff:     -0.222D-02 0.254D+00 0.722D-01 0.248D+00 0.427D+00
 Gap=     0.065 Goal=   None    Shift=    0.000
 RMSDP=9.85D-08 MaxDP=3.73D-06 DE=-5.36D-07 OVMax= 3.12D-05

 Cycle  13  Pass 1  IDiag  1:
 RMSU=  9.08D-08    CP:  9.97D-01  1.01D+00  3.20D-01  7.91D-01  9.13D-01
 E= -1694.06019806545     Delta-E=       -0.000000004668 Rises=F Damp=F
 DIIS: error= 2.07D-06 at cycle   6 NSaved=   6.
 NSaved= 6 IEnMin= 6 EnMin= -1694.06019806545     IErMin= 6 ErrMin= 2.07D-06
 ErrMax= 2.07D-06  0.00D+00 EMaxC= 1.00D-01 BMatC= 6.65D-10 BMatP= 4.07D-09
 IDIUse=1 WtCom= 1.00D+00 WtEn= 0.00D+00
 Coeff-Com: -0.835D-03 0.926D-01 0.262D-01 0.940D-01 0.286D+00 0.502D+00
 Coeff:     -0.835D-03 0.926D-01 0.262D-01 0.940D-01 0.286D+00 0.502D+00
 Gap=     0.065 Goal=   None    Shift=    0.000
 RMSDP=2.77D-08 MaxDP=1.36D-06 DE=-4.67D-09 OVMax= 1.02D-05

 Cycle  14  Pass 1  IDiag  1:
 RMSU=  1.91D-08    CP:  9.97D-01  1.01D+00  3.21D-01  7.87D-01  9.38D-01
                    CP:  8.32D-01
 E= -1694.06019806618     Delta-E=       -0.000000000736 Rises=F Damp=F
 DIIS: error= 3.02D-07 at cycle   7 NSaved=   7.
 NSaved= 7 IEnMin= 7 EnMin= -1694.06019806618     IErMin= 7 ErrMin= 3.02D-07
 ErrMax= 3.02D-07  0.00D+00 EMaxC= 1.00D-01 BMatC= 2.14D-11 BMatP= 6.65D-10
 IDIUse=1 WtCom= 1.00D+00 WtEn= 0.00D+00
 Coeff-Com: -0.173D-03 0.185D-01 0.490D-02 0.206D-01 0.891D-01 0.211D+00
 Coeff-Com:  0.656D+00
 Coeff:     -0.173D-03 0.185D-01 0.490D-02 0.206D-01 0.891D-01 0.211D+00
 Coeff:      0.656D+00
 Gap=     0.065 Goal=   None    Shift=    0.000
 RMSDP=9.31D-09 MaxDP=6.76D-07 DE=-7.36D-10 OVMax= 5.57D-06

 SCF Done:  E(RB3LYP) =  -1694.06019807     A.U. after   14 cycles
            NFock= 14  Conv=0.93D-08     -V/T= 2.0044
 KE= 1.686685492791D+03 PE=-1.317080840107D+04 EE= 5.169907579054D+03
 Leave Link  502 at Wed Sep 27 16:59:23 2023, MaxMem=  3221225472 cpu:            3456.4 elap:              93.6
 (Enter /home/center/opt/aarch64/apps/gaussian16/c01/g16/l601.exe)
 Copying SCF densities to generalized density rwf, IOpCl= 0 IROHF=0.

 **********************************************************************

            Population analysis using the SCF Density.

 **********************************************************************

 Orbital symmetries:
       Occupied  (A") (A') (A') (A") (A") (A') (A") (A') (A') (A')
                 (A") (A') (A") (A') (A") (A') (A") (A') (A") (A')
                 (A") (A') (A") (A') (A") (A') (A') (A") (A") (A')
                 (A") (A') (A') (A") (A') (A") (A') (A") (A') (A')
                 (A") (A') (A") (A') (A') (A") (A') (A") (A') (A')
                 (A") (A") (A') (A') (A") (A') (A') (A") (A') (A')
                 (A") (A") (A") (A") (A') (A') (A') (A') (A") (A")
                 (A") (A') (A") (A") (A') (A') (A") (A') (A') (A')
                 (A') (A") (A") (A') (A") (A") (A') (A") (A') (A')
                 (A") (A') (A') (A") (A") (A') (A") (A") (A') (A')
                 (A") (A') (A') (A') (A') (A') (A") (A") (A") (A')
                 (A') (A') (A") (A") (A") (A") (A") (A') (A") (A')
                 (A') (A') (A') (A") (A') (A") (A') (A") (A") (A")
                 (A') (A") (A') (A') (A") (A') (A") (A') (A') (A')
                 (A") (A") (A") (A") (A') (A')
       Virtual   (A') (A') (A") (A") (A") (A") (A') (A') (A') (A")
                 (A') (A') (A") (A') (A") (A') (A') (A') (A") (A")
                 (A') (A') (A") (A") (A') (A") (A') (A") (A') (A")
                 (A") (A') (A") (A') (A') (A") (A") (A') (A") (A')
                 (A') (A') (A") (A') (A") (A') (A") (A') (A") (A')
                 (A") (A') (A') (A') (A') (A') (A') (A") (A") (A")
                 (A') (A") (A") (A") (A') (A') (A") (A") (A') (A")
                 (A') (A') (A") (A') (A") (A') (A") (A') (A") (A')
                 (A") (A') (A') (A') (A') (A') (A") (A") (A') (A")
                 (A") (A") (A') (A') (A') (A") (A') (A') (A") (A")
                 (A') (A") (A") (A') (A") (A') (A') (A") (A") (A")
                 (A') (A') (A") (A') (A") (A') (A") (A') (A') (A')
                 (A") (A") (A') (A') (A') (A') (A') (A') (A") (A")
                 (A") (A') (A") (A') (A') (A") (A') (A") (A') (A")
                 (A') (A") (A') (A') (A") (A') (A") (A") (A') (A")
                 (A") (A") (A') (A') (A") (A') (A') (A") (A') (A")
                 (A') (A") (A') (A') (A") (A") (A") (A') (A') (A")
                 (A") (A') (A') (A") (A') (A') (A') (A") (A') (A")
                 (A") (A") (A') (A') (A") (A') (A") (A') (A") (A')
                 (A") (A') (A") (A") (A') (A') (A") (A') (A") (A')
                 (A') (A") (A') (A") (A') (A') (A") (A') (A") (A')
                 (A") (A') (A") (A") (A') (A') (A") (A') (A") (A')
                 (A") (A") (A') (A") (A") (A') (A') (A") (A') (A')
                 (A") (A') (A") (A') (A') (A") (A') (A") (A") (A')
                 (A') (A") (A") (A') (A') (A") (A") (A') (A") (A')
                 (A') (A") (A') (A") (A") (A') (A') (A") (A") (A')
                 (A') (A") (A') (A") (A') (A") (A') (A') (A") (A")
                 (A') (A") (A") (A') (A') (A") (A') (A") (A') (A")
                 (A") (A') (A') (A") (A') (A") (A") (A') (A') (A")
                 (A') (A') (A") (A") (A') (A') (A") (A') (A") (A')
                 (A") (A") (A") (A') (A") (A') (A') (A") (A') (A')
                 (A") (A') (A") (A') (A") (A") (A') (A") (A') (A')
                 (A") (A') (A") (A') (A") (A') (A') (A") (A") (A')
                 (A") (A") (A') (A") (A') (A') (A") (A") (A') (A')
                 (A") (A') (A') (A') (A") (A") (A') (A') (A") (A')
                 (A") (A") (A') (A") (A') (A') (A') (A') (A') (A")
                 (A') (A") (A') (A") (A') (A") (A") (A") (A") (A')
                 (A") (A") (A') (A") (A') (A") (A") (A') (A") (A')
                 (A') (A") (A') (A') (A") (A') (A') (A") (A') (A')
                 (A') (A') (A") (A") (A') (A") (A') (A") (A") (A')
                 (A") (A') (A") (A') (A") (A') (A') (A") (A') (A")
                 (A') (A') (A") (A') (A") (A') (A") (A') (A') (A")
                 (A') (A") (A') (A') (A") (A") (A') (A') (A") (A')
                 (A") (A") (A") (A') (A") (A') (A") (A') (A") (A")
                 (A') (A') (A') (A") (A") (A") (A') (A") (A') (A')
                 (A") (A') (A") (A") (A') (A') (A") (A') (A") (A')
                 (A") (A") (A') (A') (A") (A') (A') (A") (A') (A')
                 (A") (A") (A') (A") (A") (A') (A") (A') (A") (A')
                 (A") (A') (A') (A") (A') (A') (A") (A") (A") (A')
                 (A") (A") (A") (A') (A") (A") (A") (A') (A") (A')
                 (A') (A") (A') (A') (A") (A') (A') (A') (A") (A")
                 (A') (A') (A") (A') (A") (A') (A') (A") (A') (A")
                 (A") (A") (A") (A') (A') (A') (A") (A') (A") (A")
                 (A') (A") (A') (A') (A") (A") (A") (A') (A') (A')
                 (A") (A') (A") (A') (A') (A") (A") (A") (A') (A")
                 (A') (A") (A") (A') (A") (A') (A') (A") (A') (A')
                 (A") (A') (A') (A") (A") (A') (A") (A') (A") (A')
                 (A") (A') (A") (A') (A') (A') (A") (A') (A') (A')
                 (A") (A") (A") (A') (A') (A") (A') (A") (A") (A')
                 (A") (A') (A") (A") (A") (A') (A') (A') (A") (A')
                 (A') (A") (A') (A') (A') (A") (A') (A") (A") (A')
                 (A") (A') (A') (A") (A') (A') (A") (A') (A") (A')
                 (A") (A') (A") (A') (A") (A') (A') (A") (A") (A")
                 (A") (A') (A") (A') (A') (A') (A") (A') (A') (A")
                 (A') (A") (A") (A') (A") (A') (A") (A") (A') (A')
                 (A") (A') (A') (A") (A') (A') (A") (A') (A") (A')
                 (A") (A') (A") (A') (A") (A") (A') (A') (A") (A')
                 (A') (A") (A") (A') (A") (A') (A") (A") (A') (A')
                 (A') (A') (A") (A") (A') (A") (A') (A") (A") (A")
                 (A') (A') (A") (A') (A') (A') (A") (A") (A") (A')
                 (A') (A") (A') (A") (A') (A") (A') (A") (A') (A")
                 (A") (A") (A') (A") (A') (A') (A') (A") (A') (A")
                 (A') (A") (A') (A') (A") (A') (A') (A") (A') (A")
                 (A') (A") (A") (A') (A") (A') (A') (A") (A") (A')
                 (A') (A") (A') (A") (A') (A') (A") (A') (A') (A")
                 (A') (A') (A") (A') (A") (A") (A') (A') (A") (A")
                 (A") (A') (A") (A") (A') (A') (A") (A") (A') (A")
                 (A') (A') (A") (A") (A') (A') (A') (A') (A") (A")
                 (A") (A") (A') (A') (A") (A') (A") (A') (A') (A')
                 (A") (A") (A") (A") (A') (A') (A") (A') (A') (A")
                 (A') (A") (A') (A') (A") (A") (A') (A') (A") (A')
                 (A') (A") (A') (A")
 The electronic state is 1-A'.
 Alpha  occ. eigenvalues --  -10.19648 -10.19648 -10.19595 -10.19594 -10.19545
 Alpha  occ. eigenvalues --  -10.19545 -10.19479 -10.19479 -10.18665 -10.18637
 Alpha  occ. eigenvalues --  -10.18602 -10.18602 -10.18593 -10.18593 -10.18512
 Alpha  occ. eigenvalues --  -10.18512 -10.18456 -10.18456 -10.18439 -10.18439
 Alpha  occ. eigenvalues --  -10.18369 -10.18369 -10.18043 -10.18043 -10.17997
 Alpha  occ. eigenvalues --  -10.17997 -10.17949 -10.17948 -10.17872 -10.17872
 Alpha  occ. eigenvalues --  -10.17124 -10.17124 -10.17050 -10.17050 -10.17048
 Alpha  occ. eigenvalues --  -10.17042 -10.17042 -10.16956 -10.16956 -10.16935
 Alpha  occ. eigenvalues --  -10.16898 -10.16898 -10.16824 -10.16824  -0.90062
 Alpha  occ. eigenvalues --   -0.88561  -0.88443  -0.86992  -0.86233  -0.84687
 Alpha  occ. eigenvalues --   -0.83091  -0.81559  -0.80496  -0.79192  -0.78967
 Alpha  occ. eigenvalues --   -0.78901  -0.77669  -0.77419  -0.76634  -0.75106
 Alpha  occ. eigenvalues --   -0.74930  -0.73541  -0.73397  -0.72022  -0.69845
 Alpha  occ. eigenvalues --   -0.68311  -0.68005  -0.66481  -0.63379  -0.63008
 Alpha  occ. eigenvalues --   -0.61855  -0.61742  -0.61518  -0.60583  -0.60174
 Alpha  occ. eigenvalues --   -0.59920  -0.59046  -0.58407  -0.58317  -0.56829
 Alpha  occ. eigenvalues --   -0.53347  -0.53190  -0.52911  -0.51852  -0.51681
 Alpha  occ. eigenvalues --   -0.51439  -0.50253  -0.49146  -0.48758  -0.47755
 Alpha  occ. eigenvalues --   -0.47682  -0.46704  -0.46303  -0.46159  -0.46124
 Alpha  occ. eigenvalues --   -0.45351  -0.44773  -0.44610  -0.44560  -0.43772
 Alpha  occ. eigenvalues --   -0.43155  -0.43091  -0.42414  -0.42363  -0.42184
 Alpha  occ. eigenvalues --   -0.41952  -0.41698  -0.41360  -0.41026  -0.40897
 Alpha  occ. eigenvalues --   -0.40668  -0.40518  -0.40253  -0.39801  -0.39545
 Alpha  occ. eigenvalues --   -0.38797  -0.38736  -0.37454  -0.37347  -0.36948
 Alpha  occ. eigenvalues --   -0.36148  -0.35902  -0.35524  -0.34743  -0.34531
 Alpha  occ. eigenvalues --   -0.34401  -0.33671  -0.33534  -0.33222  -0.32868
 Alpha  occ. eigenvalues --   -0.32641  -0.32109  -0.31713  -0.30706  -0.30300
 Alpha  occ. eigenvalues --   -0.29087  -0.28782  -0.27593  -0.27299  -0.25750
 Alpha  occ. eigenvalues --   -0.25120  -0.23535  -0.23269  -0.21710  -0.18562
 Alpha  occ. eigenvalues --   -0.16963
 Alpha virt. eigenvalues --   -0.10466  -0.08885  -0.05157  -0.03616  -0.03477
 Alpha virt. eigenvalues --   -0.01912  -0.00853   0.00701   0.01385   0.01604
 Alpha virt. eigenvalues --    0.02311   0.02892   0.03208   0.03803   0.03985
 Alpha virt. eigenvalues --    0.03998   0.04697   0.05450   0.05766   0.05937
 Alpha virt. eigenvalues --    0.06068   0.06622   0.07275   0.07621   0.07822
 Alpha virt. eigenvalues --    0.07980   0.08759   0.09128   0.09224   0.09641
 Alpha virt. eigenvalues --    0.10047   0.10307   0.10897   0.11093   0.11234
 Alpha virt. eigenvalues --    0.12002   0.12735   0.13160   0.13420   0.13543
 Alpha virt. eigenvalues --    0.14249   0.14954   0.15495   0.15832   0.17382
 Alpha virt. eigenvalues --    0.17824   0.18299   0.18476   0.18916   0.19519
 Alpha virt. eigenvalues --    0.19618   0.20289   0.22273   0.22322   0.23747
 Alpha virt. eigenvalues --    0.23789   0.23970   0.24304   0.25018   0.25287
 Alpha virt. eigenvalues --    0.25293   0.26278   0.26935   0.27004   0.27300
 Alpha virt. eigenvalues --    0.27633   0.27892   0.28268   0.28727   0.28756
 Alpha virt. eigenvalues --    0.29028   0.29386   0.29575   0.30120   0.30201
 Alpha virt. eigenvalues --    0.30222   0.30600   0.31305   0.31704   0.32166
 Alpha virt. eigenvalues --    0.32337   0.34017   0.34597   0.34667   0.35020
 Alpha virt. eigenvalues --    0.35200   0.35217   0.35724   0.35985   0.36325
 Alpha virt. eigenvalues --    0.36775   0.37274   0.37632   0.37962   0.38015
 Alpha virt. eigenvalues --    0.38646   0.38647   0.38788   0.38814   0.39094
 Alpha virt. eigenvalues --    0.39183   0.39319   0.39638   0.39758   0.40027
 Alpha virt. eigenvalues --    0.40110   0.40443   0.40490   0.41343   0.41438
 Alpha virt. eigenvalues --    0.41879   0.42242   0.42406   0.42488   0.42553
 Alpha virt. eigenvalues --    0.42631   0.42904   0.43177   0.43261   0.43495
 Alpha virt. eigenvalues --    0.43719   0.44203   0.44522   0.44592   0.45096
 Alpha virt. eigenvalues --    0.45179   0.45371   0.45572   0.45611   0.45872
 Alpha virt. eigenvalues --    0.45981   0.46022   0.46156   0.46551   0.46882
 Alpha virt. eigenvalues --    0.47045   0.47270   0.47391   0.47866   0.47984
 Alpha virt. eigenvalues --    0.48619   0.48727   0.49023   0.49082   0.49249
 Alpha virt. eigenvalues --    0.49531   0.50122   0.50305   0.50493   0.50554
 Alpha virt. eigenvalues --    0.50778   0.51133   0.51352   0.51798   0.52139
 Alpha virt. eigenvalues --    0.52381   0.52875   0.53174   0.53894   0.54447
 Alpha virt. eigenvalues --    0.54895   0.55251   0.55753   0.56427   0.56624
 Alpha virt. eigenvalues --    0.57202   0.57370   0.57546   0.57942   0.58104
 Alpha virt. eigenvalues --    0.58348   0.58707   0.59083   0.59585   0.59650
 Alpha virt. eigenvalues --    0.60282   0.60597   0.61273   0.61351   0.61551
 Alpha virt. eigenvalues --    0.61598   0.62023   0.62122   0.62419   0.62766
 Alpha virt. eigenvalues --    0.62880   0.63360   0.63583   0.63613   0.63813
 Alpha virt. eigenvalues --    0.64002   0.64168   0.64631   0.65496   0.65812
 Alpha virt. eigenvalues --    0.66389   0.66486   0.66579   0.66868   0.66955
 Alpha virt. eigenvalues --    0.67549   0.67751   0.69263   0.69911   0.70471
 Alpha virt. eigenvalues --    0.70921   0.71145   0.71507   0.71929   0.72370
 Alpha virt. eigenvalues --    0.72871   0.72919   0.73237   0.73866   0.73930
 Alpha virt. eigenvalues --    0.74409   0.75051   0.75788   0.75932   0.76132
 Alpha virt. eigenvalues --    0.76207   0.76905   0.77664   0.77733   0.78092
 Alpha virt. eigenvalues --    0.78464   0.78927   0.79519   0.79571   0.80463
 Alpha virt. eigenvalues --    0.80527   0.80772   0.81709   0.81765   0.82059
 Alpha virt. eigenvalues --    0.82455   0.83164   0.83376   0.83674   0.84101
 Alpha virt. eigenvalues --    0.84601   0.85341   0.85721   0.85757   0.86109
 Alpha virt. eigenvalues --    0.86952   0.87636   0.87839   0.88961   0.89805
 Alpha virt. eigenvalues --    0.90133   0.90207   0.90638   0.90871   0.91725
 Alpha virt. eigenvalues --    0.92348   0.92946   0.93391   0.93972   0.94684
 Alpha virt. eigenvalues --    0.94843   0.95009   0.95384   0.96294   0.96576
 Alpha virt. eigenvalues --    0.96873   0.96972   0.97523   0.98089   0.98387
 Alpha virt. eigenvalues --    0.98982   0.99402   0.99778   1.00579   1.01404
 Alpha virt. eigenvalues --    1.01466   1.01677   1.01971   1.02460   1.02461
 Alpha virt. eigenvalues --    1.03111   1.03507   1.04273   1.04327   1.04488
 Alpha virt. eigenvalues --    1.04970   1.05167   1.05360   1.05973   1.06031
 Alpha virt. eigenvalues --    1.06228   1.06334   1.06353   1.06662   1.06709
 Alpha virt. eigenvalues --    1.07383   1.07442   1.08150   1.08294   1.08882
 Alpha virt. eigenvalues --    1.09211   1.09521   1.10385   1.10838   1.10938
 Alpha virt. eigenvalues --    1.11448   1.11897   1.12151   1.12879   1.12943
 Alpha virt. eigenvalues --    1.13242   1.13650   1.13916   1.14097   1.14890
 Alpha virt. eigenvalues --    1.15397   1.15520   1.16203   1.16534   1.17371
 Alpha virt. eigenvalues --    1.17543   1.18444   1.18866   1.19265   1.21293
 Alpha virt. eigenvalues --    1.21389   1.22404   1.22717   1.23418   1.24421
 Alpha virt. eigenvalues --    1.24660   1.26000   1.27590   1.27916   1.29932
 Alpha virt. eigenvalues --    1.30315   1.30692   1.32032   1.32126   1.33166
 Alpha virt. eigenvalues --    1.34246   1.35527   1.35702   1.36700   1.37092
 Alpha virt. eigenvalues --    1.38759   1.39428   1.39609   1.40038   1.40567
 Alpha virt. eigenvalues --    1.40751   1.40968   1.41144   1.41685   1.42190
 Alpha virt. eigenvalues --    1.42843   1.43231   1.44246   1.44309   1.44673
 Alpha virt. eigenvalues --    1.45210   1.45773   1.46641   1.47156   1.47315
 Alpha virt. eigenvalues --    1.47567   1.47931   1.48400   1.48961   1.49048
 Alpha virt. eigenvalues --    1.49208   1.49581   1.49844   1.50278   1.50762
 Alpha virt. eigenvalues --    1.50920   1.51661   1.51764   1.52367   1.52646
 Alpha virt. eigenvalues --    1.52742   1.53905   1.53916   1.54243   1.54593
 Alpha virt. eigenvalues --    1.54746   1.55063   1.55253   1.55311   1.55660
 Alpha virt. eigenvalues --    1.55924   1.57766   1.57781   1.58156   1.58751
 Alpha virt. eigenvalues --    1.59135   1.59520   1.59930   1.60901   1.61003
 Alpha virt. eigenvalues --    1.61858   1.62024   1.62634   1.62802   1.64493
 Alpha virt. eigenvalues --    1.65140   1.65662   1.66026   1.66503   1.67698
 Alpha virt. eigenvalues --    1.68941   1.69146   1.69699   1.70560   1.70600
 Alpha virt. eigenvalues --    1.70705   1.71399   1.71647   1.72107   1.72369
 Alpha virt. eigenvalues --    1.73372   1.73595   1.73672   1.73838   1.73853
 Alpha virt. eigenvalues --    1.74153   1.74375   1.74562   1.75511   1.76615
 Alpha virt. eigenvalues --    1.76933   1.78443   1.78579   1.78826   1.79972
 Alpha virt. eigenvalues --    1.79988   1.80046   1.80468   1.81278   1.82110
 Alpha virt. eigenvalues --    1.82120   1.82402   1.82762   1.82778   1.82994
 Alpha virt. eigenvalues --    1.83853   1.84162   1.84362   1.84793   1.85117
 Alpha virt. eigenvalues --    1.85389   1.86597   1.87073   1.87482   1.87519
 Alpha virt. eigenvalues --    1.87628   1.87971   1.88344   1.88525   1.88705
 Alpha virt. eigenvalues --    1.89054   1.89204   1.89210   1.90547   1.90868
 Alpha virt. eigenvalues --    1.91121   1.91357   1.91358   1.92129   1.92418
 Alpha virt. eigenvalues --    1.92672   1.93099   1.93408   1.93617   1.93980
 Alpha virt. eigenvalues --    1.94040   1.94227   1.94654   1.94776   1.95675
 Alpha virt. eigenvalues --    1.96184   1.96196   1.96509   1.96917   1.97642
 Alpha virt. eigenvalues --    1.98414   1.99528   2.00761   2.00779   2.00868
 Alpha virt. eigenvalues --    2.01276   2.01331   2.02533   2.02692   2.04247
 Alpha virt. eigenvalues --    2.05356   2.06824   2.07819   2.08312   2.08563
 Alpha virt. eigenvalues --    2.09226   2.09766   2.10342   2.10968   2.11601
 Alpha virt. eigenvalues --    2.11609   2.12349   2.13191   2.13936   2.15106
 Alpha virt. eigenvalues --    2.15184   2.16146   2.16585   2.16673   2.18044
 Alpha virt. eigenvalues --    2.18286   2.19274   2.20288   2.21982   2.22048
 Alpha virt. eigenvalues --    2.22361   2.22899   2.23254   2.23331   2.23941
 Alpha virt. eigenvalues --    2.23992   2.25057   2.25559   2.26629   2.26642
 Alpha virt. eigenvalues --    2.26961   2.27400   2.27649   2.27849   2.28197
 Alpha virt. eigenvalues --    2.28333   2.29700   2.29744   2.30603   2.32474
 Alpha virt. eigenvalues --    2.34043   2.35127   2.35344   2.36776   2.38664
 Alpha virt. eigenvalues --    2.38742   2.40153   2.40218   2.41058   2.41706
 Alpha virt. eigenvalues --    2.42450   2.42835   2.44566   2.44864   2.45159
 Alpha virt. eigenvalues --    2.45328   2.45557   2.46714   2.47031   2.49195
 Alpha virt. eigenvalues --    2.50944   2.52826   2.53238   2.53436   2.54109
 Alpha virt. eigenvalues --    2.54736   2.54911   2.56124   2.56369   2.56955
 Alpha virt. eigenvalues --    2.57955   2.58202   2.59254   2.59313   2.59485
 Alpha virt. eigenvalues --    2.59881   2.60606   2.60707   2.60914   2.60966
 Alpha virt. eigenvalues --    2.61361   2.61643   2.61863   2.62206   2.62908
 Alpha virt. eigenvalues --    2.63149   2.63810   2.63878   2.64595   2.64836
 Alpha virt. eigenvalues --    2.65555   2.65613   2.66033   2.66413   2.66573
 Alpha virt. eigenvalues --    2.66834   2.67816   2.68267   2.68389   2.68595
 Alpha virt. eigenvalues --    2.68931   2.69098   2.69155   2.69723   2.69787
 Alpha virt. eigenvalues --    2.69809   2.69870   2.69985   2.70795   2.70942
 Alpha virt. eigenvalues --    2.71297   2.71787   2.72588   2.72884   2.73085
 Alpha virt. eigenvalues --    2.73589   2.74162   2.74178   2.74721   2.74945
 Alpha virt. eigenvalues --    2.75426   2.75713   2.76811   2.77068   2.77278
 Alpha virt. eigenvalues --    2.77655   2.77765   2.78226   2.78690   2.79284
 Alpha virt. eigenvalues --    2.79569   2.80084   2.80277   2.80731   2.81774
 Alpha virt. eigenvalues --    2.82796   2.82983   2.83449   2.84056   2.85466
 Alpha virt. eigenvalues --    2.85752   2.86266   2.87140   2.87195   2.87853
 Alpha virt. eigenvalues --    2.87867   2.89338   2.90159   2.90420   2.91917
 Alpha virt. eigenvalues --    2.92683   2.92779   2.93168   2.93627   2.94193
 Alpha virt. eigenvalues --    2.95760   2.95871   2.96276   2.98151   2.98232
 Alpha virt. eigenvalues --    2.98666   2.99327   3.00492   3.02161   3.02649
 Alpha virt. eigenvalues --    3.04800   3.05836   3.06737   3.07880   3.07889
 Alpha virt. eigenvalues --    3.08532   3.08953   3.15589   3.15953   3.16585
 Alpha virt. eigenvalues --    3.17063   3.17401   3.17889   3.19357   3.20486
 Alpha virt. eigenvalues --    3.21091   3.21275   3.23704   3.24811   3.29358
 Alpha virt. eigenvalues --    3.30006   3.30237   3.30762   3.31321   3.32888
 Alpha virt. eigenvalues --    3.35129   3.35230   3.36312   3.36628   3.37001
 Alpha virt. eigenvalues --    3.37275   3.37503   3.38082   3.39097   3.39636
 Alpha virt. eigenvalues --    3.40854   3.41086   3.41133   3.42925   3.44745
 Alpha virt. eigenvalues --    3.44999   3.46018   3.46589   3.49108   3.49190
 Alpha virt. eigenvalues --    3.50146   3.51308   3.51497   3.52157   3.52775
 Alpha virt. eigenvalues --    3.55138   3.57121   3.58418   3.58620   3.60215
 Alpha virt. eigenvalues --    3.61700   3.62582   3.62733   3.63900   3.64172
 Alpha virt. eigenvalues --    3.64425   3.66368   3.66474   3.67317   3.68177
 Alpha virt. eigenvalues --    3.68605   3.69339   3.70893   3.71032   4.00013
 Alpha virt. eigenvalues --    4.00062   4.01315   4.01640   4.01908   4.01945
 Alpha virt. eigenvalues --    4.02952   4.03277   4.15638   4.16206   4.17329
 Alpha virt. eigenvalues --    4.18149   4.18747   4.20599   4.20797   4.21920
 Alpha virt. eigenvalues --    4.22094   4.22933   4.23959   4.25290   4.25694
 Alpha virt. eigenvalues --    4.28605   4.38184   4.40512   4.61725   4.64028
 Alpha virt. eigenvalues --    4.78521   4.79150   4.79919   4.80645   4.81012
 Alpha virt. eigenvalues --    4.82019   4.82220   4.82483   4.84439   4.84732
 Alpha virt. eigenvalues --   23.39856  23.43531  23.55034  23.59166  23.69586
 Alpha virt. eigenvalues --   23.73111  23.77361  23.78801  23.80832  23.81360
 Alpha virt. eigenvalues --   23.82527  23.83950  23.85834  23.87409  23.88739
 Alpha virt. eigenvalues --   23.89642  23.90447  23.91046  23.92008  23.93914
 Alpha virt. eigenvalues --   23.96894  23.98330  23.98617  23.99476  24.08764
 Alpha virt. eigenvalues --   24.09413  24.10093  24.10127  24.10896  24.11500
 Alpha virt. eigenvalues --   24.11660  24.13157  24.13390  24.13729  24.14930
 Alpha virt. eigenvalues --   24.15201  24.15240  24.15628  24.16633  24.16666
 Alpha virt. eigenvalues --   24.19861  24.19905  24.21471  24.21532
          Condensed to atoms (all electrons):
 Mulliken charges:
               1
     1  C   -0.063089
     2  C   -0.055677
     3  C   -0.047705
     4  C   -0.077620
     5  C   -0.090814
     6  C   -0.092345
     7  C    0.000758
     8  C   -0.062623
     9  C   -0.047703
    10  C   -0.045087
    11  H    0.085193
    12  H    0.078041
    13  H    0.076511
    14  H    0.085053
    15  H    0.098318
    16  H    0.097622
    17  C   -0.003800
    18  C   -0.062623
    19  C   -0.052089
    20  C   -0.045087
    21  H    0.076720
    22  H    0.075235
    23  C    0.000758
    24  C   -0.063089
    25  C   -0.047703
    26  C   -0.055677
    27  H    0.078041
    28  H    0.076511
    29  C   -0.047705
    30  C   -0.090814
    31  C   -0.077620
    32  C   -0.092345
    33  H    0.085193
    34  H    0.097622
    35  H    0.098318
    36  H    0.085053
    37  C   -0.026869
    38  C   -0.119177
    39  C   -0.063072
    40  C   -0.048450
    41  C   -0.086785
    42  C   -0.120351
    43  C   -0.030173
    44  C   -0.015572
    45  C   -0.006718
    46  C   -0.124116
    47  H    0.078649
    48  H    0.070429
    49  H    0.125637
    50  H    0.128513
    51  H    0.086309
    52  H    0.091149
    53  C   -0.034459
    54  C   -0.015572
    55  C   -0.010643
    56  C   -0.124116
    57  H    0.069034
    58  H    0.123530
    59  C   -0.030173
    60  C   -0.026869
    61  C   -0.006718
    62  C   -0.119177
    63  H    0.070429
    64  H    0.125637
    65  C   -0.063072
    66  C   -0.086785
    67  C   -0.048450
    68  C   -0.120351
    69  H    0.078649
    70  H    0.091149
    71  H    0.086309
    72  H    0.128513
 Sum of Mulliken charges =   0.00000
 Mulliken charges with hydrogens summed into heavy atoms:
               1
     1  C   -0.063089
     2  C   -0.055677
     3  C    0.037488
     4  C    0.007433
     5  C    0.006808
     6  C    0.005974
     7  C    0.078799
     8  C   -0.062623
     9  C    0.028808
    10  C   -0.045087
    17  C    0.072920
    18  C   -0.062623
    19  C    0.023145
    20  C   -0.045087
    23  C    0.078799
    24  C   -0.063089
    25  C    0.028808
    26  C   -0.055677
    29  C    0.037488
    30  C    0.006808
    31  C    0.007433
    32  C    0.005974
    37  C   -0.026869
    38  C   -0.119177
    39  C    0.015577
    40  C    0.080064
    41  C    0.004364
    42  C   -0.034042
    43  C    0.040256
    44  C   -0.015572
    45  C    0.118919
    46  C   -0.124116
    53  C    0.034575
    54  C   -0.015572
    55  C    0.112887
    56  C   -0.124116
    59  C    0.040256
    60  C   -0.026869
    61  C    0.118919
    62  C   -0.119177
    65  C    0.015577
    66  C    0.004364
    67  C    0.080064
    68  C   -0.034042
         Mulliken charges condensed to fragments:
      1     -0.026267
      2      0.026267
 Electronic spatial extent (au):  <R**2>=          26060.4680
 Charge=              0.0000 electrons
 Dipole moment (field-independent basis, Debye):
    X=              0.3939    Y=             -1.4956    Z=              0.0000  Tot=              1.5466
 Quadrupole moment (field-independent basis, Debye-Ang):
   XX=           -245.8374   YY=           -249.3425   ZZ=           -219.6940
   XY=             -0.2361   XZ=              0.0000   YZ=              0.0000
 Traceless Quadrupole moment (field-independent basis, Debye-Ang):
   XX=             -7.5461   YY=            -11.0511   ZZ=             18.5973
   XY=             -0.2361   XZ=              0.0000   YZ=              0.0000
 Octapole moment (field-independent basis, Debye-Ang**2):
  XXX=             29.6329  YYY=            177.6390  ZZZ=              0.0000  XYY=             -5.7037
  XXY=            -72.9665  XXZ=              0.0000  XZZ=              6.8893  YZZ=            -34.1985
  YYZ=              0.0000  XYZ=              0.0000
 Hexadecapole moment (field-independent basis, Debye-Ang**3):
 XXXX=          -1443.3309 YYYY=         -11761.0401 ZZZZ=         -21031.7035 XXXY=            690.7309
 XXXZ=              0.0000 YYYX=            697.2547 YYYZ=              0.0000 ZZZX=              0.0000
 ZZZY=              0.0000 XXYY=          -2273.8551 XXZZ=          -4187.3995 YYZZ=          -5746.4486
 XXYZ=              0.0000 YYXZ=              0.0000 ZZXY=            203.7776
 N-N= 4.620155131161D+03 E-N=-1.317080835322D+04  KE= 1.686685492791D+03
 Symmetry A'   KE= 9.134235446956D+02
 Symmetry A"   KE= 7.732619480951D+02
 No NMR shielding tensors so no spin-rotation constants.
 Leave Link  601 at Wed Sep 27 16:59:27 2023, MaxMem=  3221225472 cpu:              51.4 elap:               1.4
 (Enter /home/center/opt/aarch64/apps/gaussian16/c01/g16/l122.exe)
 CPIOFr:  IOpCl= 0 IRwI=-1 IRwCP=  731 ICalc= -1 LCPTot=     1419224 Len1MO=     3708034 IndFrg=     1419224
 CPIOFr:  IOpCl= 0 IRwI=-1 IRwCP=  731 ICalc=  0 LCPTot=     1419224 Len1MO=     3708034 IndFrg=     5127258
 Counterpoise: doing calculation for fragment   1 using the basis set of the full-system, NewBq=T
 Leave Link  122 at Wed Sep 27 16:59:29 2023, MaxMem=  3221225472 cpu:               8.7 elap:               0.4
 (Enter /home/center/opt/aarch64/apps/gaussian16/c01/g16/l301.exe)
 Basis read from rwf:  (5D, 7F)
 No pseudopotential information found on rwf file.
 There are   528 symmetry adapted cartesian basis functions of A'  symmetry.
 There are   476 symmetry adapted cartesian basis functions of A"  symmetry.
 There are   504 symmetry adapted basis functions of A'  symmetry.
 There are   456 symmetry adapted basis functions of A"  symmetry.
   960 basis functions,  1632 primitive gaussians,  1004 cartesian basis functions
    73 alpha electrons       73 beta electrons
       nuclear repulsion energy      1494.3575060352 Hartrees.
 IExCor=  402 DFT=T Ex+Corr=B3LYP ExCW=0 ScaHFX=  0.200000
 ScaDFX=  0.800000  0.720000  1.000000  0.810000 ScalE2=  1.000000  1.000000
 IRadAn=      5 IRanWt=     -1 IRanGd=            0 ICorTp=0 IEmpDi=131
 NAtoms=   72 NActive=   72 NUniq=   40 SFac= 3.24D+00 NAtFMM=   60 NAOKFM=T Big=F
 Integral buffers will be    131072 words long.
 Raffenetti 2 integral format.
 Two-electron integral symmetry is turned on.
 R6Disp:  Grimme-D3 Dispersion energy=       -0.0303938888 Hartrees.
 Nuclear repulsion after empirical dispersion term =     1494.3271121464 Hartrees.
 No density basis found on file    718.
 Leave Link  301 at Wed Sep 27 16:59:32 2023, MaxMem=  3221225472 cpu:               2.3 elap:               0.1
 (Enter /home/center/opt/aarch64/apps/gaussian16/c01/g16/l302.exe)
 NPDir=0 NMtPBC=     1 NCelOv=     1 NCel=       1 NClECP=     1 NCelD=      1
         NCelK=      1 NCelE2=     1 NClLst=     1 CellRange=     0.0.
 One-electron integrals computed using PRISM.
 One-electron integral symmetry used in STVInt
 NBasis=   960 RedAO= T EigKep=  3.78D-05  NBF=   504   456
 NBsUse=   960 1.00D-06 EigRej= -1.00D+00 NBFU=   504   456
 Precomputing XC quadrature grid using
 IXCGrd= 4 IRadAn=           5 IRanWt=          -1 IRanGd=           0 AccXCQ= 0.00D+00.
 Generated NRdTot=       0 NPtTot=           0 NUsed=           0 NTot=          32
 NSgBfM=   991   991   991   991   991 MxSgAt=    72 MxSgA2=    72.
 Leave Link  302 at Wed Sep 27 16:59:36 2023, MaxMem=  3221225472 cpu:              59.4 elap:               1.6
 (Enter /home/center/opt/aarch64/apps/gaussian16/c01/g16/l303.exe)
 DipDrv:  MaxL=1.
 Leave Link  303 at Wed Sep 27 16:59:38 2023, MaxMem=  3221225472 cpu:              14.3 elap:               0.4
 (Enter /home/center/opt/aarch64/apps/gaussian16/c01/g16/l401.exe)
 ExpMin= 1.03D-01 ExpMax= 4.56D+03 ExpMxC= 6.82D+02 IAcc=3 IRadAn=         5 AccDes= 0.00D+00
 Harris functional with IExCor=  402 and IRadAn=       5 diagonalized for initial guess.
 HarFok:  IExCor=  402 AccDes= 0.00D+00 IRadAn=         5 IDoV= 1 UseB2=F ITyADJ=14
 ICtDFT=  3500011 ScaDFX=  1.000000  1.000000  1.000000  1.000000
 FoFCou: FMM=F IPFlag=           0 FMFlag=      100000 FMFlg1=        2000
         NFxFlg=           0 DoJE=T BraDBF=F KetDBF=T FulRan=T
         wScrn=  0.000000 ICntrl=       500 IOpCl=  0 I1Cent=   200000004 NGrid=           0
         NMat0=    1 NMatS0=      1 NMatT0=    0 NMatD0=    1 NMtDS0=    0 NMtDT0=    0
 Petite list used in FoFCou.
 Harris En= -847.066595123961    
 JPrj=0 DoOrth=F DoCkMO=F.
 Initial guess orbital symmetries:
       Occupied  (A") (A') (A') (A") (A") (A') (A") (A') (A') (A")
                 (A") (A') (A') (A') (A") (A') (A") (A') (A") (A')
                 (A') (A") (A') (A") (A') (A") (A') (A') (A") (A')
                 (A") (A") (A') (A') (A") (A") (A') (A") (A') (A')
                 (A') (A") (A") (A") (A') (A') (A") (A') (A') (A")
                 (A') (A") (A") (A') (A') (A") (A') (A") (A') (A")
                 (A") (A') (A') (A") (A') (A") (A') (A") (A') (A')
                 (A") (A") (A')
       Virtual   (A') (A") (A") (A') (A') (A") (A') (A") (A') (A")
                 (A') (A') (A") (A') (A") (A') (A') (A") (A') (A")
                 (A") (A") (A') (A') (A") (A') (A') (A') (A') (A')
                 (A") (A") (A") (A') (A') (A") (A') (A") (A") (A')
                 (A') (A") (A") (A') (A") (A') (A") (A') (A") (A')
                 (A') (A") (A') (A") (A') (A') (A") (A") (A') (A")
                 (A') (A') (A') (A") (A') (A") (A") (A") (A') (A')
                 (A") (A') (A') (A") (A') (A') (A") (A') (A') (A')
                 (A") (A") (A") (A") (A') (A') (A') (A") (A') (A")
                 (A") (A") (A") (A') (A') (A") (A') (A') (A") (A')
                 (A') (A') (A") (A') (A") (A") (A') (A') (A") (A')
                 (A') (A") (A') (A") (A') (A") (A") (A") (A') (A")
                 (A') (A") (A') (A") (A') (A') (A") (A') (A") (A')
                 (A') (A") (A') (A') (A") (A') (A") (A") (A') (A')
                 (A') (A") (A') (A") (A') (A") (A') (A") (A') (A")
                 (A") (A') (A") (A') (A") (A") (A') (A') (A') (A")
                 (A') (A") (A') (A") (A') (A') (A") (A") (A') (A")
                 (A") (A') (A") (A') (A') (A') (A") (A') (A') (A")
                 (A") (A") (A') (A') (A") (A") (A") (A') (A') (A")
                 (A') (A') (A') (A') (A") (A') (A") (A") (A') (A")
                 (A') (A") (A") (A') (A") (A') (A") (A') (A') (A")
                 (A') (A") (A") (A') (A") (A') (A") (A') (A") (A')
                 (A') (A") (A') (A') (A") (A") (A') (A') (A") (A')
                 (A') (A") (A') (A") (A") (A") (A') (A') (A") (A")
                 (A') (A") (A') (A') (A") (A') (A') (A") (A") (A")
                 (A') (A") (A") (A') (A') (A') (A') (A') (A") (A")
                 (A") (A") (A') (A') (A') (A') (A") (A") (A') (A")
                 (A') (A') (A") (A") (A") (A') (A") (A') (A") (A')
                 (A') (A") (A") (A') (A') (A") (A') (A") (A') (A")
                 (A') (A') (A") (A') (A') (A') (A") (A") (A') (A')
                 (A") (A') (A') (A") (A") (A') (A") (A") (A") (A")
                 (A') (A") (A') (A') (A") (A') (A') (A") (A') (A')
                 (A") (A') (A") (A") (A') (A') (A") (A') (A') (A")
                 (A') (A") (A') (A') (A") (A') (A") (A') (A') (A")
                 (A") (A") (A") (A') (A') (A") (A") (A') (A') (A')
                 (A") (A') (A") (A') (A') (A") (A') (A") (A') (A')
                 (A") (A') (A") (A') (A") (A") (A') (A") (A') (A')
                 (A") (A") (A") (A") (A') (A") (A') (A') (A") (A')
                 (A') (A") (A') (A") (A") (A') (A') (A") (A') (A")
                 (A') (A") (A") (A') (A") (A') (A') (A') (A") (A")
                 (A') (A') (A") (A") (A") (A') (A") (A') (A') (A")
                 (A") (A') (A') (A') (A') (A") (A") (A') (A') (A")
                 (A") (A") (A') (A") (A') (A") (A") (A') (A") (A")
                 (A') (A') (A') (A') (A') (A") (A') (A") (A") (A')
                 (A") (A') (A') (A") (A') (A") (A') (A") (A") (A')
                 (A") (A') (A') (A') (A") (A') (A') (A") (A") (A")
                 (A") (A') (A') (A") (A') (A") (A') (A") (A') (A')
                 (A') (A") (A") (A") (A') (A") (A") (A') (A') (A")
                 (A') (A") (A") (A') (A") (A') (A') (A") (A") (A')
                 (A") (A') (A") (A') (A') (A") (A') (A") (A') (A")
                 (A') (A") (A') (A") (A') (A") (A") (A') (A') (A')
                 (A") (A') (A") (A") (A") (A') (A") (A') (A') (A')
                 (A") (A') (A") (A") (A') (A') (A") (A') (A") (A')
                 (A") (A') (A') (A") (A') (A") (A') (A") (A') (A')
                 (A") (A") (A') (A') (A") (A') (A') (A") (A") (A')
                 (A") (A") (A') (A') (A') (A") (A') (A") (A") (A')
                 (A') (A") (A') (A') (A") (A") (A") (A") (A') (A')
                 (A") (A') (A') (A') (A") (A') (A') (A") (A") (A')
                 (A") (A') (A") (A") (A') (A') (A") (A") (A") (A')
                 (A') (A') (A') (A") (A') (A") (A') (A") (A') (A")
                 (A') (A") (A") (A") (A') (A') (A") (A') (A") (A')
                 (A") (A') (A') (A") (A') (A") (A') (A") (A') (A")
                 (A') (A') (A") (A") (A') (A") (A") (A') (A') (A")
                 (A") (A') (A") (A") (A") (A') (A') (A') (A') (A')
                 (A") (A") (A') (A") (A") (A') (A') (A") (A') (A")
                 (A') (A") (A') (A") (A') (A") (A") (A') (A") (A')
                 (A") (A') (A') (A") (A") (A') (A") (A") (A') (A')
                 (A') (A") (A") (A') (A') (A") (A') (A") (A') (A')
                 (A") (A') (A") (A') (A") (A') (A') (A") (A') (A")
                 (A') (A") (A') (A') (A") (A") (A') (A") (A') (A')
                 (A") (A") (A') (A") (A') (A") (A') (A') (A") (A')
                 (A") (A') (A") (A') (A") (A') (A') (A") (A') (A')
                 (A") (A") (A') (A") (A") (A') (A') (A') (A') (A")
                 (A") (A") (A') (A") (A') (A") (A') (A") (A") (A')
                 (A") (A') (A") (A') (A") (A') (A') (A") (A") (A')
                 (A') (A") (A') (A') (A") (A') (A") (A') (A") (A')
                 (A") (A') (A') (A") (A") (A') (A') (A') (A") (A")
                 (A") (A') (A') (A") (A') (A') (A") (A') (A") (A')
                 (A") (A') (A') (A") (A") (A") (A') (A") (A') (A')
                 (A") (A') (A") (A") (A') (A") (A') (A') (A') (A")
                 (A") (A') (A") (A') (A") (A') (A") (A') (A') (A")
                 (A") (A') (A') (A") (A') (A") (A") (A') (A") (A')
[...]
                 (A') (A") (A') (A') (A') (A") (A") (A") (A") (A')
                 (A') (A') (A") (A") (A') (A") (A') (A") (A') (A')
                 (A") (A") (A')
       Virtual   (A') (A") (A") (A') (A') (A") (A') (A') (A') (A")
                 (A") (A') (A") (A') (A") (A') (A") (A") (A') (A")
                 (A') (A') (A") (A') (A") (A') (A') (A') (A') (A")
                 (A") (A") (A") (A') (A') (A") (A') (A") (A') (A")
                 (A') (A') (A') (A") (A') (A") (A") (A') (A') (A")
                 (A") (A') (A') (A") (A') (A") (A") (A") (A') (A")
                 (A') (A') (A') (A') (A') (A") (A') (A') (A") (A")
                 (A") (A') (A') (A') (A") (A') (A") (A") (A") (A')
                 (A') (A") (A') (A") (A") (A') (A") (A') (A') (A')
                 (A') (A') (A") (A") (A") (A") (A') (A") (A') (A")
                 (A') (A') (A') (A") (A") (A') (A') (A") (A') (A")
                 (A') (A") (A") (A") (A') (A') (A") (A') (A') (A")
                 (A') (A") (A") (A') (A') (A") (A') (A") (A') (A")
                 (A") (A') (A') (A') (A') (A") (A") (A") (A') (A")
                 (A') (A") (A') (A") (A') (A') (A") (A") (A') (A")
                 (A') (A") (A') (A") (A') (A') (A") (A') (A") (A")
                 (A') (A") (A') (A') (A") (A") (A') (A") (A') (A")
                 (A') (A') (A") (A') (A') (A") (A") (A') (A') (A')
                 (A") (A') (A") (A") (A") (A") (A') (A") (A') (A')
                 (A") (A') (A") (A') (A') (A') (A") (A') (A") (A')
                 (A") (A") (A') (A') (A") (A") (A') (A') (A") (A')
                 (A') (A') (A') (A") (A") (A") (A") (A') (A') (A")
                 (A') (A") (A") (A') (A") (A') (A") (A') (A") (A')
                 (A") (A') (A') (A") (A') (A") (A") (A') (A') (A")
                 (A") (A') (A') (A") (A") (A') (A") (A") (A") (A')
                 (A') (A") (A') (A') (A") (A') (A') (A") (A') (A")
                 (A") (A') (A") (A') (A') (A") (A") (A") (A') (A')
                 (A") (A') (A') (A") (A") (A") (A') (A") (A') (A')
                 (A") (A') (A") (A') (A") (A') (A') (A') (A") (A')
                 (A") (A") (A') (A') (A") (A") (A') (A") (A') (A")
                 (A') (A') (A") (A") (A') (A') (A") (A') (A') (A')
                 (A") (A") (A') (A") (A') (A") (A') (A") (A') (A')
                 (A') (A") (A") (A") (A') (A") (A') (A') (A') (A")
                 (A") (A') (A") (A') (A') (A") (A') (A") (A") (A')
                 (A') (A") (A') (A") (A") (A') (A') (A") (A') (A")
                 (A') (A") (A') (A") (A') (A") (A") (A') (A') (A")
                 (A') (A") (A') (A') (A") (A") (A') (A") (A') (A')
                 (A") (A') (A") (A') (A') (A") (A') (A") (A') (A")
                 (A") (A') (A") (A') (A") (A') (A") (A') (A') (A")
                 (A") (A') (A") (A') (A') (A") (A") (A') (A') (A")
                 (A') (A") (A') (A") (A') (A') (A")
 The electronic state is 1-A'.
 Alpha  occ. eigenvalues --  -10.18931 -10.18930 -10.18896 -10.18895 -10.18848
 Alpha  occ. eigenvalues --  -10.18848 -10.18813 -10.18813 -10.17956 -10.17955
 Alpha  occ. eigenvalues --  -10.17920 -10.17920 -10.17919 -10.17919 -10.17875
 Alpha  occ. eigenvalues --  -10.17875 -10.17863 -10.17863 -10.17808 -10.17808
 Alpha  occ. eigenvalues --  -10.17781 -10.17781  -0.89340  -0.87865  -0.85549
 Alpha  occ. eigenvalues --   -0.82415  -0.79820  -0.78521  -0.78314  -0.75991
 Alpha  occ. eigenvalues --   -0.74255  -0.72901  -0.69196  -0.67344  -0.62728
 Alpha  occ. eigenvalues --   -0.62370  -0.61108  -0.59964  -0.59301  -0.57689
 Alpha  occ. eigenvalues --   -0.52709  -0.52573  -0.52293  -0.49654  -0.48513
 Alpha  occ. eigenvalues --   -0.47160  -0.46110  -0.45590  -0.45476  -0.43928
 Alpha  occ. eigenvalues --   -0.43182  -0.42578  -0.41808  -0.41572  -0.41386
 Alpha  occ. eigenvalues --   -0.40692  -0.40405  -0.39579  -0.38193  -0.36732
 Alpha  occ. eigenvalues --   -0.36341  -0.35550  -0.34094  -0.33809  -0.33058
 Alpha  occ. eigenvalues --   -0.32930  -0.31612  -0.29665  -0.28406  -0.26623
 Alpha  occ. eigenvalues --   -0.24364  -0.22582  -0.17855
 Alpha virt. eigenvalues --   -0.09755  -0.04464  -0.02747  -0.00147   0.02073
 Alpha virt. eigenvalues --    0.02370   0.03189   0.04746   0.04859   0.04871
 Alpha virt. eigenvalues --    0.06161   0.06575   0.07968   0.08162   0.08303
 Alpha virt. eigenvalues --    0.09607   0.10049   0.11524   0.11533   0.13796
 Alpha virt. eigenvalues --    0.14111   0.14670   0.18092   0.18194   0.18832
 Alpha virt. eigenvalues --    0.19391   0.22815   0.23002   0.24379   0.24942
 Alpha virt. eigenvalues --    0.25581   0.27528   0.27575   0.28012   0.28228
 Alpha virt. eigenvalues --    0.28947   0.29389   0.30158   0.30759   0.31175
 Alpha virt. eigenvalues --    0.32897   0.34528   0.36420   0.36484   0.37134
 Alpha virt. eigenvalues --    0.37503   0.37629   0.37651   0.38116   0.38643
 Alpha virt. eigenvalues --    0.39094   0.39439   0.39739   0.40236   0.40435
 Alpha virt. eigenvalues --    0.41918   0.41926   0.41940   0.42289   0.42318
 Alpha virt. eigenvalues --    0.42643   0.43748   0.44233   0.44835   0.45295
 Alpha virt. eigenvalues --    0.45683   0.45924   0.45953   0.46379   0.47165
 Alpha virt. eigenvalues --    0.47805   0.47809   0.47978   0.48073   0.48231
 Alpha virt. eigenvalues --    0.48568   0.49414   0.49572   0.51377   0.51846
 Alpha virt. eigenvalues --    0.52370   0.53118   0.53671   0.55998   0.57923
 Alpha virt. eigenvalues --    0.57955   0.59048   0.59201   0.60433   0.60585
 Alpha virt. eigenvalues --    0.60693   0.61101   0.61690   0.62105   0.62173
 Alpha virt. eigenvalues --    0.63432   0.63481   0.64458   0.64535   0.65533
 Alpha virt. eigenvalues --    0.66693   0.66910   0.67680   0.67724   0.70658
 Alpha virt. eigenvalues --    0.71305   0.71405   0.71494   0.72803   0.73989
 Alpha virt. eigenvalues --    0.75405   0.75894   0.76289   0.77801   0.77809
 Alpha virt. eigenvalues --    0.78943   0.79160   0.79723   0.81162   0.81509
 Alpha virt. eigenvalues --    0.82881   0.83001   0.84383   0.84585   0.84713
 Alpha virt. eigenvalues --    0.88087   0.89711   0.89765   0.91536   0.92083
 Alpha virt. eigenvalues --    0.92578   0.93749   0.95806   0.96107   0.96442
 Alpha virt. eigenvalues --    0.96590   0.96905   0.98547   1.00356   1.01118
 Alpha virt. eigenvalues --    1.02686   1.03027   1.03354   1.04405   1.05244
 Alpha virt. eigenvalues --    1.05439   1.05525   1.05950   1.07395   1.07547
 Alpha virt. eigenvalues --    1.07686   1.08438   1.10005   1.10036   1.12070
 Alpha virt. eigenvalues --    1.13223   1.13544   1.13650   1.14526   1.15341
 Alpha virt. eigenvalues --    1.17432   1.18332   1.19657   1.20432   1.23014
 Alpha virt. eigenvalues --    1.23618   1.27884   1.28234   1.30579   1.32076
 Alpha virt. eigenvalues --    1.32743   1.34942   1.37641   1.39236   1.39896
 Alpha virt. eigenvalues --    1.39942   1.40725   1.42751   1.43476   1.43554
 Alpha virt. eigenvalues --    1.45057   1.46086   1.47119   1.47538   1.48841
 Alpha virt. eigenvalues --    1.49280   1.49417   1.50258   1.50674   1.52268
 Alpha virt. eigenvalues --    1.52650   1.53402   1.54331   1.54372   1.54781
 Alpha virt. eigenvalues --    1.54807   1.57107   1.57715   1.58569   1.59882
 Alpha virt. eigenvalues --    1.60106   1.62692   1.63242   1.64856   1.66641
 Alpha virt. eigenvalues --    1.69292   1.69605   1.69709   1.70649   1.71804
 Alpha virt. eigenvalues --    1.72459   1.72619   1.73075   1.73096   1.73680
 Alpha virt. eigenvalues --    1.77494   1.78519   1.79157   1.79419   1.80511
 Alpha virt. eigenvalues --    1.81616   1.81887   1.82058   1.83581   1.84039
 Alpha virt. eigenvalues --    1.85487   1.87392   1.87456   1.87577   1.87728
 Alpha virt. eigenvalues --    1.88131   1.88613   1.90743   1.91387   1.92190
 Alpha virt. eigenvalues --    1.92193   1.92572   1.92670   1.93517   1.93938
 Alpha virt. eigenvalues --    1.94544   1.95483   1.97262   1.99429   2.00088
 Alpha virt. eigenvalues --    2.00602   2.01362   2.03019   2.05757   2.08293
 Alpha virt. eigenvalues --    2.09111   2.09256   2.09792   2.12192   2.14098
 Alpha virt. eigenvalues --    2.15528   2.15584   2.17200   2.19751   2.20833
 Alpha virt. eigenvalues --    2.21576   2.22525   2.23381   2.24503   2.26441
 Alpha virt. eigenvalues --    2.26972   2.27242   2.27719   2.28046   2.29391
 Alpha virt. eigenvalues --    2.33301   2.35725   2.39155   2.39384   2.40817
 Alpha virt. eigenvalues --    2.42649   2.43076   2.45776   2.45994   2.46870
 Alpha virt. eigenvalues --    2.51623   2.51954   2.53354   2.53485   2.55138
 Alpha virt. eigenvalues --    2.56159   2.58701   2.58838   2.59764   2.59776
 Alpha virt. eigenvalues --    2.60682   2.61147   2.61719   2.62222   2.63349
 Alpha virt. eigenvalues --    2.63999   2.64478   2.66054   2.66794   2.67121
 Alpha virt. eigenvalues --    2.67374   2.68356   2.68872   2.68876   2.69372
 Alpha virt. eigenvalues --    2.69557   2.69907   2.70083   2.70281   2.73482
 Alpha virt. eigenvalues --    2.74771   2.74836   2.76066   2.77101   2.77577
 Alpha virt. eigenvalues --    2.78232   2.78455   2.78850   2.80822   2.82359
 Alpha virt. eigenvalues --    2.85535   2.85993   2.86737   2.87294   2.90966
 Alpha virt. eigenvalues --    2.91783   2.92195   2.93676   2.95232   2.95887
 Alpha virt. eigenvalues --    2.99270   2.99858   3.03165   3.05604   3.06852
 Alpha virt. eigenvalues --    3.07371   3.15988   3.16029   3.16647   3.19843
 Alpha virt. eigenvalues --    3.20017   3.23601   3.29134   3.29680   3.31610
 Alpha virt. eigenvalues --    3.35095   3.35458   3.35677   3.35858   3.38023
 Alpha virt. eigenvalues --    3.39887   3.41413   3.44960   3.45362   3.47993
 Alpha virt. eigenvalues --    3.48278   3.50401   3.53073   3.57439   3.58649
 Alpha virt. eigenvalues --    3.61466   3.62620   3.63208   3.63698   3.65910
 Alpha virt. eigenvalues --    3.67534   3.67678   4.00384   4.00442   4.01859
 Alpha virt. eigenvalues --    4.02182   4.16133   4.16678   4.17360   4.21240
 Alpha virt. eigenvalues --    4.22396   4.22517   4.25488   4.38492   4.62290
 Alpha virt. eigenvalues --    4.79179   4.79740   4.80562   4.82562   4.83014
 Alpha virt. eigenvalues --   23.39176  23.54541  23.69085  23.77378  23.80419
 Alpha virt. eigenvalues --   23.81537  23.86099  23.89067  23.89154  23.92210
 Alpha virt. eigenvalues --   23.97563  23.98365  24.09049  24.09932  24.10529
 Alpha virt. eigenvalues --   24.12220  24.13779  24.14375  24.15775  24.15810
 Alpha virt. eigenvalues --   24.20452  24.20497
          Condensed to atoms (all electrons):
 Mulliken charges:
               1
     1  C    0.000000
     2  C    0.000000
     3  C    0.000000
     4  C    0.000000
     5  C    0.000000
     6  C    0.000000
     7  C    0.000000
     8  C    0.000000
     9  C    0.000000
    10  C    0.000000
    11  H    0.000000
    12  H    0.000000
    13  H    0.000000
    14  H    0.000000
    15  H    0.000000
    16  H    0.000000
    17  C    0.000000
    18  C    0.000000
    19  C    0.000000
    20  C    0.000000
    21  H    0.000000
    22  H    0.000000
    23  C    0.000000
    24  C    0.000000
    25  C    0.000000
    26  C    0.000000
    27  H    0.000000
    28  H    0.000000
    29  C    0.000000
    30  C    0.000000
    31  C    0.000000
    32  C    0.000000
    33  H    0.000000
    34  H    0.000000
    35  H    0.000000
    36  H    0.000000
    37  C   -0.059168
    38  C   -0.059168
    39  C   -0.055977
    40  C   -0.055977
    41  C   -0.092198
    42  C   -0.092198
    43  C   -0.016525
    44  C   -0.054498
    45  C   -0.016525
    46  C   -0.054498
    47  H    0.082122
    48  H    0.074853
    49  H    0.074853
    50  H    0.082122
    51  H    0.094847
    52  H    0.094847
    53  C   -0.020341
    54  C   -0.054498
    55  C   -0.020341
    56  C   -0.054498
    57  H    0.073428
    58  H    0.073428
    59  C   -0.016525
    60  C   -0.059168
    61  C   -0.016525
    62  C   -0.059168
    63  H    0.074853
    64  H    0.074853
    65  C   -0.055977
    66  C   -0.092198
    67  C   -0.055977
    68  C   -0.092198
    69  H    0.082122
    70  H    0.094847
    71  H    0.094847
    72  H    0.082122
 Sum of Mulliken charges =   0.00000
 Mulliken charges with hydrogens summed into heavy atoms:
               1
     1  C    0.000000
     2  C    0.000000
     3  C    0.000000
     4  C    0.000000
     5  C    0.000000
     6  C    0.000000
     7  C    0.000000
     8  C    0.000000
     9  C    0.000000
    10  C    0.000000
    17  C    0.000000
    18  C    0.000000
    19  C    0.000000
    20  C    0.000000
    23  C    0.000000
    24  C    0.000000
    25  C    0.000000
    26  C    0.000000
    29  C    0.000000
    30  C    0.000000
    31  C    0.000000
    32  C    0.000000
    37  C   -0.059168
    38  C   -0.059168
    39  C    0.026144
    40  C    0.026144
    41  C    0.002649
    42  C    0.002649
    43  C    0.058328
    44  C   -0.054498
    45  C    0.058328
    46  C   -0.054498
    53  C    0.053087
    54  C   -0.054498
    55  C    0.053087
    56  C   -0.054498
    59  C    0.058328
    60  C   -0.059168
    61  C    0.058328
    62  C   -0.059168
    65  C    0.026144
    66  C    0.002649
    67  C    0.026144
    68  C    0.002649
         Mulliken charges condensed to fragments:
      1      0.000000
      2      0.000000
 Electronic spatial extent (au):  <R**2>=          18715.5297
 Charge=              0.0000 electrons
 Dipole moment (field-independent basis, Debye):
    X=              0.0000    Y=              0.0000    Z=              0.0000  Tot=              0.0000
 Quadrupole moment (field-independent basis, Debye-Ang):
   XX=           -136.3921   YY=           -110.7480   ZZ=           -109.0115
   XY=              0.0000   XZ=              0.0000   YZ=              0.0000
 Traceless Quadrupole moment (field-independent basis, Debye-Ang):
   XX=            -17.6749   YY=              7.9692   ZZ=              9.7057
   XY=              0.0000   XZ=              0.0000   YZ=              0.0000
 Octapole moment (field-independent basis, Debye-Ang**2):
  XXX=           1229.6578  YYY=            998.4612  ZZZ=              0.0000  XYY=            332.8204
  XXY=            409.8859  XXZ=              0.0000  XZZ=            327.6017  YZZ=            327.6017
  YYZ=              0.0000  XYZ=              0.0000
 Hexadecapole moment (field-independent basis, Debye-Ang**3):
 XXXX=          -7545.1486 YYYY=          -7117.8757 ZZZZ=         -10461.4324 XXXY=          -3695.3723
 XXXZ=              0.0000 YYYX=          -3000.5795 YYYZ=              0.0000 ZZZX=              0.0000
 ZZZY=              0.0000 XXYY=          -2488.3993 XXZZ=          -3192.4419 YYZZ=          -2953.7243
 XXYZ=              0.0000 YYXZ=              0.0000 ZZXY=           -984.5099
 N-N= 1.494327111324D+03 E-N=-4.953709174165D+03  KE= 8.433374904716D+02
 Symmetry A'   KE= 4.567052305305D+02
 Symmetry A"   KE= 3.866322599410D+02
 No NMR shielding tensors so no spin-rotation constants.
 Leave Link  601 at Wed Sep 27 17:16:07 2023, MaxMem=  3221225472 cpu:              22.8 elap:               0.6
 (Enter /home/center/opt/aarch64/apps/gaussian16/c01/g16/l122.exe)
 CPIOFr:  IOpCl= 0 IRwI=-1 IRwCP=  731 ICalc=  4 LCPTot=     1419224 Len1MO=     3708034 IndFrg=    19959394
 Restoring MOs from calculation   1 to rwf.
 CPIOFr:  IOpCl= 0 IRwI=-2 IRwCP=  731 ICalc=  0 LCPTot=     1419224 Len1MO=     3708034 IndFrg=     5127258
 Counterpoise corrected energy =   -1694.040972368320
                   BSSE energy =       0.000002575161
              sum of fragments =   -1694.039683044256
           complexation energy =      -0.81 kcal/mole (raw)
           complexation energy =      -0.81 kcal/mole (corrected)
 Leave Link  122 at Wed Sep 27 17:16:10 2023, MaxMem=  3221225472 cpu:               8.3 elap:               0.4
 (Enter /home/center/opt/aarch64/apps/gaussian16/c01/g16/l9999.exe)

 Test job not archived.
 1\1\GINC-FX0515\SP\RB3LYP\6-311G(d,p)\C44H28\Z40145W\27-Sep-2023\0\\#P
  TEST b3lyp/6-311G** EmpiricalDispersion=GD3 counterpoise=2\\pentacene
 _A1=0_A2=0_A3=45_p2\\0,1\C,0,-0.5039478476,0.5239478476,-3.6612755801\
 C,0,0.5239480325,-0.5039480325,-3.6612755629\C,0,-0.9861248463,1.00612
 48463,-4.9235927708\C,0,1.0061250889,-0.9861250889,-4.9235926697\C,0,-
 0.4963213507,0.5163213507,-6.096356521\C,0,0.5163216812,-0.4963216812,
 -6.0963564796\C,0,-0.9844684311,1.0044684311,-2.4533174875\C,0,-0.5044
 88426,0.524488426,-1.2140288145\C,0,1.0044685359,-0.9844685359,-2.4533
 173917\C,0,0.5244885437,-0.5044885437,-1.2140288362\H,0,-1.7533559667,
 1.7733559667,-4.9232600459\H,0,-1.7521866813,1.7721866813,-2.453928581
 5\H,0,1.7721859268,-1.7521859268,-2.4539284818\H,0,1.7733558421,-1.753
 3558421,-4.9232597785\H,0,0.8905568758,-0.8705568758,-7.0425276922\H,0
 ,-0.8705565046,0.8905565046,-7.042527775\C,0,-0.9848184961,1.004818496
 1,0.0099998782\C,0,-0.5044883957,0.5244883957,1.2340295553\C,0,1.00481
 85643,-0.9848185643,0.0099998696\C,0,0.5244885146,-0.5044885146,1.2340
 295261\H,0,-1.7524699697,1.7724699697,0.0099999205\H,0,1.772468921,-1.
 752468921,0.0099999641\C,0,-0.9844683048,1.0044683048,2.4733171385\C,0
 ,-0.5039477114,0.5239477114,3.681276331\C,0,1.0044684211,-0.9844684211
 ,2.4733170835\C,0,0.5239479079,-0.5039479079,3.6812763217\H,0,-1.75218
 65527,1.7721865527,2.4739285326\H,0,1.7721858092,-1.7521858092,2.47392
 83796\C,0,-0.9861245177,1.0061245177,4.9435920588\C,0,-0.4963209372,0.
 5163209372,6.116356633\C,0,1.0061247659,-0.9861247659,4.9435919377\C,0
 ,0.5163212637,-0.4963212637,6.1163566075\H,0,-1.7533556504,1.773355650
 4,4.9432601504\H,0,-0.8705567426,0.8905567426,7.0625274368\H,0,0.89055
 70967,-0.8705570967,7.0625272142\H,0,1.7733555414,-1.7533555414,4.9432
 599297\C,0,7.9960521524,0.5239478476,-3.6612755801\C,0,9.0239480325,-0
 .5039480325,-3.6612755629\C,0,7.5138751537,1.0061248463,-4.9235927708\
 C,0,9.5061250889,-0.9861250889,-4.9235926697\C,0,8.0036786493,0.516321
 3507,-6.096356521\C,0,9.0163216812,-0.4963216812,-6.0963564796\C,0,7.5
 155315689,1.0044684311,-2.4533174875\C,0,7.995511574,0.524488426,-1.21
 40288145\C,0,9.5044685359,-0.9844685359,-2.4533173917\C,0,9.0244885437
 ,-0.5044885437,-1.2140288362\H,0,6.7466440333,1.7733559667,-4.92326004
 59\H,0,6.7478133187,1.7721866813,-2.4539285815\H,0,10.2721859268,-1.75
 21859268,-2.4539284818\H,0,10.2733558421,-1.7533558421,-4.9232597785\H
 ,0,9.3905568758,-0.8705568758,-7.0425276922\H,0,7.6294434954,0.8905565
 046,-7.042527775\C,0,7.5151815039,1.0048184961,0.0099998782\C,0,7.9955
 116043,0.5244883957,1.2340295553\C,0,9.5048185643,-0.9848185643,0.0099
 998696\C,0,9.0244885146,-0.5044885146,1.2340295261\H,0,6.7475300303,1.
 7724699697,0.0099999205\H,0,10.272468921,-1.752468921,0.0099999641\C,0
 ,7.5155316952,1.0044683048,2.4733171385\C,0,7.9960522886,0.5239477114,
 3.681276331\C,0,9.5044684211,-0.9844684211,2.4733170835\C,0,9.02394790
 79,-0.5039479079,3.6812763217\H,0,6.7478134473,1.7721865527,2.47392853
 26\H,0,10.2721858092,-1.7521858092,2.4739283796\C,0,7.5138754823,1.006
 1245177,4.9435920588\C,0,8.0036790628,0.5163209372,6.116356633\C,0,9.5
 061247659,-0.9861247659,4.9435919377\C,0,9.0163212637,-0.4963212637,6.
 1163566075\H,0,6.7466443496,1.7733556504,4.9432601504\H,0,7.6294432574
 ,0.8905567426,7.0625274368\H,0,9.3905570967,-0.8705570967,7.0625272142
 \H,0,10.2733555414,-1.7533555414,4.9432599297\\Version=Fujitsu-Arm-G16
 RevC.01\State=1-A'\HF=-847.0198415\RMSD=3.183e-09\Dipole=0.0000158,-0.
 0000156,0.\Quadrupole=-7.7985625,-6.6016502,14.4002128,-18.4082435,0.,
 0.\PG=CS [SG(C4H4),X(C40H24)]\\@


 IN THE WOODS WE RETURN TO REASON AND FAITH.

                                 -- EMERSON
 Job cpu time:       0 days  2 hours 39 minutes 58.7 seconds.
 Elapsed time:       0 days  0 hours  4 minutes 10.6 seconds.
 File lengths (MBytes):  RWF=    718 Int=      0 D2E=      0 Chk=    208 Scr=      1
 Normal termination of Gaussian 16 at Wed Sep 27 17:16:16 2023.
