 Entering Gaussian System, Link 0=g16
 Initial command:
 /home/center/opt/aarch64/apps/gaussian16/c01/g16/l1.exe "/data/tmp/Gtmp/1006965/Gau-49.inp" -scrdir="/data/tmp/Gtmp/1006965/"
 Entering Link 1 = /home/center/opt/aarch64/apps/gaussian16/c01/g16/l1.exe PID=        50.
  
 Copyright (c) 1988-2019, Gaussian, Inc.  All Rights Reserved.
  
 This is part of the Gaussian(R) 16 program.  It is based on
 the Gaussian(R) 09 system (copyright 2009, Gaussian, Inc.),
 the Gaussian(R) 03 system (copyright 2003, Gaussian, Inc.),
 the Gaussian(R) 98 system (copyright 1998, Gaussian, Inc.),
 the Gaussian(R) 94 system (copyright 1995, Gaussian, Inc.),
 the Gaussian 92(TM) system (copyright 1992, Gaussian, Inc.),
 the Gaussian 90(TM) system (copyright 1990, Gaussian, Inc.),
 the Gaussian 88(TM) system (copyright 1988, Gaussian, Inc.),
 the Gaussian 86(TM) system (copyright 1986, Carnegie Mellon
 University), and the Gaussian 82(TM) system (copyright 1983,
 Carnegie Mellon University). Gaussian is a federally registered
 trademark of Gaussian, Inc.
  
 This software contains proprietary and confidential information,
 including trade secrets, belonging to Gaussian, Inc.
  
 This software is provided under written license and may be
 used, copied, transmitted, or stored only in accord with that
 written license.
  
 The following legend is applicable only to US Government
 contracts under FAR:
  
                    RESTRICTED RIGHTS LEGEND
  
 Use, reproduction and disclosure by the US Government is
 subject to restrictions as set forth in subparagraphs (a)
 and (c) of the Commercial Computer Software - Restricted
 Rights clause in FAR 52.227-19.
  
 Gaussian, Inc.
 340 Quinnipiac St., Bldg. 40, Wallingford CT 06492
  
  
 ---------------------------------------------------------------
 Warning -- This program may not be used in any manner that
 competes with the business of Gaussian, Inc. or will provide
 assistance to any competitor of Gaussian, Inc.  The licensee
 of this program is prohibited from giving any competitor of
 Gaussian, Inc. access to this program.  By using this program,
 the user acknowledges that Gaussian, Inc. is engaged in the
 business of creating and licensing software in the field of
 computational chemistry and represents and warrants to the
 licensee that it is not a competitor of Gaussian, Inc. and that
 it will not use this program in any manner prohibited above.
 ---------------------------------------------------------------
  

 Cite this work as:
 Gaussian 16, Revision C.01,
 M. J. Frisch, G. W. Trucks, H. B. Schlegel, G. E. Scuseria, 
 M. A. Robb, J. R. Cheeseman, G. Scalmani, V. Barone, 
 G. A. Petersson, H. Nakatsuji, X. Li, M. Caricato, A. V. Marenich, 
 J. Bloino, B. G. Janesko, R. Gomperts, B. Mennucci, H. P. Hratchian, 
 J. V. Ortiz, A. F. Izmaylov, J. L. Sonnenberg, D. Williams-Young, 
 F. Ding, F. Lipparini, F. Egidi, J. Goings, B. Peng, A. Petrone, 
 T. Henderson, D. Ranasinghe, V. G. Zakrzewski, J. Gao, N. Rega, 
 G. Zheng, W. Liang, M. Hada, M. Ehara, K. Toyota, R. Fukuda, 
 J. Hasegawa, M. Ishida, T. Nakajima, Y. Honda, O. Kitao, H. Nakai, 
 T. Vreven, K. Throssell, J. A. Montgomery, Jr., J. E. Peralta, 
 F. Ogliaro, M. J. Bearpark, J. J. Heyd, E. N. Brothers, K. N. Kudin, 
 V. N. Staroverov, T. A. Keith, R. Kobayashi, J. Normand, 
 K. Raghavachari, A. P. Rendell, J. C. Burant, S. S. Iyengar, 
 J. Tomasi, M. Cossi, J. M. Millam, M. Klene, C. Adamo, R. Cammi, 
 J. W. Ochterski, R. L. Martin, K. Morokuma, O. Farkas, 
 J. B. Foresman, and D. J. Fox, Gaussian, Inc., Wallingford CT, 2019.
 
 ************************************************
 Gaussian 16:  Fujitsu-Arm-G16RevC.01  3-Jul-2019
                   27-Sep-2023 
 ************************************************
 %mem=24GB
 %nproc=42
 Will use up to   42 processors via shared memory.
 -------------------------------------------------------------
 #P TEST b3lyp/6-311G** EmpiricalDispersion=GD3 counterpoise=2
 -------------------------------------------------------------
 1/38=1,62=2,172=1/1;
 2/12=2,17=6,18=5,40=1/2;
 1/38=1,53=2,62=2,63=1/22;
 3/5=4,6=6,7=101,11=2,25=1,30=1,74=-5,124=31/1,2,3;
 4//1;
 5/5=2,38=5/2;
 6/7=2,8=2,9=2,10=2,28=1/1;
 1/53=2,62=2,63=1/22;
 3/5=7,6=11,7=101,11=2,25=1,30=1,74=-5,82=7,124=31/1,2,3;
 4//1;
 5/5=2,38=5/2;
 6/7=2,8=2,9=2,10=2,28=1/1;
 1/53=2,62=2,63=1/22(-4);
 99/5=1,9=1/99;
 Leave Link    1 at Wed Sep 27 16:56:49 2023, MaxMem=  3221225472 cpu:               8.1 elap:               0.2
 (Enter /home/center/opt/aarch64/apps/gaussian16/c01/g16/l101.exe)
 ----------------------------
 pentacene_A1=0_A2=0_A3=45_t1
 ----------------------------
 Symbolic Z-matrix:
 Charge =  0 Multiplicity = 1 in supermolecule
 Charge =  0 Multiplicity = 1 in fragment      1.
 Charge =  0 Multiplicity = 1 in fragment      2.
 C(Fragment=1)        -0.50395   0.52395  -3.66128 
 C(Fragment=1)         0.52395  -0.50395  -3.66128 
 C(Fragment=1)        -0.98612   1.00612  -4.92359 
 C(Fragment=1)         1.00613  -0.98613  -4.92359 
 C(Fragment=1)        -0.49632   0.51632  -6.09636 
 C(Fragment=1)         0.51632  -0.49632  -6.09636 
 C(Fragment=1)        -0.98447   1.00447  -2.45332 
 C(Fragment=1)        -0.50449   0.52449  -1.21403 
 C(Fragment=1)         1.00447  -0.98447  -2.45332 
 C(Fragment=1)         0.52449  -0.50449  -1.21403 
 H(Fragment=1)        -1.75336   1.77336  -4.92326 
 H(Fragment=1)        -1.75219   1.77219  -2.45393 
 H(Fragment=1)         1.77219  -1.75219  -2.45393 
 H(Fragment=1)         1.77336  -1.75336  -4.92326 
 H(Fragment=1)         0.89056  -0.87056  -7.04253 
 H(Fragment=1)        -0.87056   0.89056  -7.04253 
 C(Fragment=1)        -0.98482   1.00482   0.01 
 C(Fragment=1)        -0.50449   0.52449   1.23403 
 C(Fragment=1)         1.00482  -0.98482   0.01 
 C(Fragment=1)         0.52449  -0.50449   1.23403 
 H(Fragment=1)        -1.75247   1.77247   0.01 
 H(Fragment=1)         1.77247  -1.75247   0.01 
 C(Fragment=1)        -0.98447   1.00447   2.47332 
 C(Fragment=1)        -0.50395   0.52395   3.68128 
 C(Fragment=1)         1.00447  -0.98447   2.47332 
 C(Fragment=1)         0.52395  -0.50395   3.68128 
 H(Fragment=1)        -1.75219   1.77219   2.47393 
 H(Fragment=1)         1.77219  -1.75219   2.47393 
 C(Fragment=1)        -0.98612   1.00612   4.94359 
 C(Fragment=1)        -0.49632   0.51632   6.11636 
 C(Fragment=1)         1.00612  -0.98612   4.94359 
 C(Fragment=1)         0.51632  -0.49632   6.11636 
 H(Fragment=1)        -1.75336   1.77336   4.94326 
 H(Fragment=1)        -0.87056   0.89056   7.06253 
 H(Fragment=1)         0.89056  -0.87056   7.06253 
 H(Fragment=1)         1.77336  -1.75336   4.94326 
 C(Fragment=2)         4.27395   3.52395  -3.66128 
 C(Fragment=2)         3.24605   2.49605  -3.66128 
 C(Fragment=2)         4.75612   4.00612  -4.92359 
 C(Fragment=2)         2.76387   2.01387  -4.92359 
 C(Fragment=2)         4.26632   3.51632  -6.09636 
 C(Fragment=2)         3.25368   2.50368  -6.09636 
 C(Fragment=2)         4.75447   4.00447  -2.45332 
 C(Fragment=2)         4.27449   3.52449  -1.21403 
 C(Fragment=2)         2.76553   2.01553  -2.45332 
 C(Fragment=2)         3.24551   2.49551  -1.21403 
 H(Fragment=2)         5.52336   4.77336  -4.92326 
 H(Fragment=2)         5.52219   4.77219  -2.45393 
 H(Fragment=2)         1.99781   1.24781  -2.45393 
 H(Fragment=2)         1.99664   1.24664  -4.92326 
 H(Fragment=2)         2.87944   2.12944  -7.04253 
 H(Fragment=2)         4.64056   3.89056  -7.04253 
 C(Fragment=2)         4.75482   4.00482   0.01 
 C(Fragment=2)         4.27449   3.52449   1.23403 
 C(Fragment=2)         2.76518   2.01518   0.01 
 C(Fragment=2)         3.24551   2.49551   1.23403 
 H(Fragment=2)         5.52247   4.77247   0.01 
 H(Fragment=2)         1.99753   1.24753   0.01 
 C(Fragment=2)         4.75447   4.00447   2.47332 
 C(Fragment=2)         4.27395   3.52395   3.68128 
 C(Fragment=2)         2.76553   2.01553   2.47332 
 C(Fragment=2)         3.24605   2.49605   3.68128 
 H(Fragment=2)         5.52219   4.77219   2.47393 
 H(Fragment=2)         1.99781   1.24781   2.47393 
 C(Fragment=2)         4.75612   4.00612   4.94359 
 C(Fragment=2)         4.26632   3.51632   6.11636 
 C(Fragment=2)         2.76388   2.01388   4.94359 
 C(Fragment=2)         3.25368   2.50368   6.11636 
 H(Fragment=2)         5.52336   4.77336   4.94326 
 H(Fragment=2)         4.64056   3.89056   7.06253 
 H(Fragment=2)         2.87944   2.12944   7.06253 
 H(Fragment=2)         1.99664   1.24664   4.94326 
 
 ITRead=  0  0  0  0  0  0  0  0  0  0  0  0  0  0  0  0  0  0  0  0
 ITRead=  0  0  0  0  0  0  0  0  0  0  0  0  0  0  0  0  0  0  0  0
 ITRead=  0  0  0  0  0  0  0  0  0  0  0  0  0  0  0  0  0  0  0  0
 ITRead=  0  0  0  0  0  0  0  0  0  0  0  0
 MicOpt= -1 -1 -1 -1 -1 -1 -1 -1 -1 -1 -1 -1 -1 -1 -1 -1 -1 -1 -1 -1
 MicOpt= -1 -1 -1 -1 -1 -1 -1 -1 -1 -1 -1 -1 -1 -1 -1 -1 -1 -1 -1 -1
 MicOpt= -1 -1 -1 -1 -1 -1 -1 -1 -1 -1 -1 -1 -1 -1 -1 -1 -1 -1 -1 -1
 MicOpt= -1 -1 -1 -1 -1 -1 -1 -1 -1 -1 -1 -1
 NAtoms=     72 NQM=       72 NQMF=       0 NMMI=      0 NMMIF=      0
                NMic=       0 NMicF=      0.
                    Isotopes and Nuclear Properties:
 (Nuclear quadrupole moments (NQMom) in fm**2, nuclear magnetic moments (NMagM)
  in nuclear magnetons)

  Atom         1           2           3           4           5           6           7           8           9          10
 IAtWgt=          12          12          12          12          12          12          12          12          12          12
 AtmWgt=  12.0000000  12.0000000  12.0000000  12.0000000  12.0000000  12.0000000  12.0000000  12.0000000  12.0000000  12.0000000
 NucSpn=           0           0           0           0           0           0           0           0           0           0
 AtZEff=   0.0000000   0.0000000   0.0000000   0.0000000   0.0000000   0.0000000   0.0000000   0.0000000   0.0000000   0.0000000
 NQMom=    0.0000000   0.0000000   0.0000000   0.0000000   0.0000000   0.0000000   0.0000000   0.0000000   0.0000000   0.0000000
 NMagM=    0.0000000   0.0000000   0.0000000   0.0000000   0.0000000   0.0000000   0.0000000   0.0000000   0.0000000   0.0000000
 AtZNuc=   6.0000000   6.0000000   6.0000000   6.0000000   6.0000000   6.0000000   6.0000000   6.0000000   6.0000000   6.0000000

  Atom        11          12          13          14          15          16          17          18          19          20
 IAtWgt=           1           1           1           1           1           1          12          12          12          12
 AtmWgt=   1.0078250   1.0078250   1.0078250   1.0078250   1.0078250   1.0078250  12.0000000  12.0000000  12.0000000  12.0000000
 NucSpn=           1           1           1           1           1           1           0           0           0           0
 AtZEff=   0.0000000   0.0000000   0.0000000   0.0000000   0.0000000   0.0000000   0.0000000   0.0000000   0.0000000   0.0000000
 NQMom=    0.0000000   0.0000000   0.0000000   0.0000000   0.0000000   0.0000000   0.0000000   0.0000000   0.0000000   0.0000000
 NMagM=    2.7928460   2.7928460   2.7928460   2.7928460   2.7928460   2.7928460   0.0000000   0.0000000   0.0000000   0.0000000
 AtZNuc=   1.0000000   1.0000000   1.0000000   1.0000000   1.0000000   1.0000000   6.0000000   6.0000000   6.0000000   6.0000000

  Atom        21          22          23          24          25          26          27          28          29          30
 IAtWgt=           1           1          12          12          12          12           1           1          12          12
 AtmWgt=   1.0078250   1.0078250  12.0000000  12.0000000  12.0000000  12.0000000   1.0078250   1.0078250  12.0000000  12.0000000
 NucSpn=           1           1           0           0           0           0           1           1           0           0
 AtZEff=   0.0000000   0.0000000   0.0000000   0.0000000   0.0000000   0.0000000   0.0000000   0.0000000   0.0000000   0.0000000
 NQMom=    0.0000000   0.0000000   0.0000000   0.0000000   0.0000000   0.0000000   0.0000000   0.0000000   0.0000000   0.0000000
 NMagM=    2.7928460   2.7928460   0.0000000   0.0000000   0.0000000   0.0000000   2.7928460   2.7928460   0.0000000   0.0000000
 AtZNuc=   1.0000000   1.0000000   6.0000000   6.0000000   6.0000000   6.0000000   1.0000000   1.0000000   6.0000000   6.0000000

  Atom        31          32          33          34          35          36          37          38          39          40
 IAtWgt=          12          12           1           1           1           1          12          12          12          12
 AtmWgt=  12.0000000  12.0000000   1.0078250   1.0078250   1.0078250   1.0078250  12.0000000  12.0000000  12.0000000  12.0000000
 NucSpn=           0           0           1           1           1           1           0           0           0           0
 AtZEff=   0.0000000   0.0000000   0.0000000   0.0000000   0.0000000   0.0000000   0.0000000   0.0000000   0.0000000   0.0000000
 NQMom=    0.0000000   0.0000000   0.0000000   0.0000000   0.0000000   0.0000000   0.0000000   0.0000000   0.0000000   0.0000000
 NMagM=    0.0000000   0.0000000   2.7928460   2.7928460   2.7928460   2.7928460   0.0000000   0.0000000   0.0000000   0.0000000
 AtZNuc=   6.0000000   6.0000000   1.0000000   1.0000000   1.0000000   1.0000000   6.0000000   6.0000000   6.0000000   6.0000000

  Atom        41          42          43          44          45          46          47          48          49          50
 IAtWgt=          12          12          12          12          12          12           1           1           1           1
 AtmWgt=  12.0000000  12.0000000  12.0000000  12.0000000  12.0000000  12.0000000   1.0078250   1.0078250   1.0078250   1.0078250
 NucSpn=           0           0           0           0           0           0           1           1           1           1
 AtZEff=   0.0000000   0.0000000   0.0000000   0.0000000   0.0000000   0.0000000   0.0000000   0.0000000   0.0000000   0.0000000
 NQMom=    0.0000000   0.0000000   0.0000000   0.0000000   0.0000000   0.0000000   0.0000000   0.0000000   0.0000000   0.0000000
 NMagM=    0.0000000   0.0000000   0.0000000   0.0000000   0.0000000   0.0000000   2.7928460   2.7928460   2.7928460   2.7928460
 AtZNuc=   6.0000000   6.0000000   6.0000000   6.0000000   6.0000000   6.0000000   1.0000000   1.0000000   1.0000000   1.0000000

  Atom        51          52          53          54          55          56          57          58          59          60
 IAtWgt=           1           1          12          12          12          12           1           1          12          12
 AtmWgt=   1.0078250   1.0078250  12.0000000  12.0000000  12.0000000  12.0000000   1.0078250   1.0078250  12.0000000  12.0000000
 NucSpn=           1           1           0           0           0           0           1           1           0           0
 AtZEff=   0.0000000   0.0000000   0.0000000   0.0000000   0.0000000   0.0000000   0.0000000   0.0000000   0.0000000   0.0000000
 NQMom=    0.0000000   0.0000000   0.0000000   0.0000000   0.0000000   0.0000000   0.0000000   0.0000000   0.0000000   0.0000000
 NMagM=    2.7928460   2.7928460   0.0000000   0.0000000   0.0000000   0.0000000   2.7928460   2.7928460   0.0000000   0.0000000
 AtZNuc=   1.0000000   1.0000000   6.0000000   6.0000000   6.0000000   6.0000000   1.0000000   1.0000000   6.0000000   6.0000000

  Atom        61          62          63          64          65          66          67          68          69          70
 IAtWgt=          12          12           1           1          12          12          12          12           1           1
 AtmWgt=  12.0000000  12.0000000   1.0078250   1.0078250  12.0000000  12.0000000  12.0000000  12.0000000   1.0078250   1.0078250
 NucSpn=           0           0           1           1           0           0           0           0           1           1
 AtZEff=   0.0000000   0.0000000   0.0000000   0.0000000   0.0000000   0.0000000   0.0000000   0.0000000   0.0000000   0.0000000
 NQMom=    0.0000000   0.0000000   0.0000000   0.0000000   0.0000000   0.0000000   0.0000000   0.0000000   0.0000000   0.0000000
 NMagM=    0.0000000   0.0000000   2.7928460   2.7928460   0.0000000   0.0000000   0.0000000   0.0000000   2.7928460   2.7928460
 AtZNuc=   6.0000000   6.0000000   1.0000000   1.0000000   6.0000000   6.0000000   6.0000000   6.0000000   1.0000000   1.0000000

  Atom        71          72
 IAtWgt=           1           1
 AtmWgt=   1.0078250   1.0078250
 NucSpn=           1           1
 AtZEff=   0.0000000   0.0000000
 NQMom=    0.0000000   0.0000000
 NMagM=    2.7928460   2.7928460
 AtZNuc=   1.0000000   1.0000000
 Leave Link  101 at Wed Sep 27 16:56:52 2023, MaxMem=  3221225472 cpu:               7.2 elap:               0.3
 (Enter /home/center/opt/aarch64/apps/gaussian16/c01/g16/l202.exe)
 Stoichiometry    C44H28
 Framework group  CS[SG(C4H4),X(C40H24)]
 Deg. of freedom   109
 Full point group                 CS      NOp   2
 Largest Abelian subgroup         CS      NOp   2
 Largest concise Abelian subgroup CS      NOp   2
                         Standard orientation:                         
 ---------------------------------------------------------------------
 Center     Atomic      Atomic             Coordinates (Angstroms)
 Number     Number       Type             X           Y           Z
 ---------------------------------------------------------------------
      1          6           0        0.991997   -2.386485    3.671276
      2          6           0       -0.461667   -2.386485    3.671276
      3          6           0        1.673898   -2.386485    4.933593
      4          6           0       -1.143569   -2.386485    4.933593
      5          6           0        0.981212   -2.386485    6.106357
      6          6           0       -0.450882   -2.386485    6.106357
      7          6           0        1.671556   -2.386485    2.463318
      8          6           0        0.992762   -2.386485    1.224029
      9          6           0       -1.141226   -2.386485    2.463317
     10          6           0       -0.462432   -2.386485    1.224029
     11          1           0        2.758927   -2.386485    4.933260
     12          1           0        2.757273   -2.386485    2.463929
     13          1           0       -2.226942   -2.386485    2.463929
     14          1           0       -2.228597   -2.386485    4.933260
     15          1           0       -0.980130   -2.386485    7.052528
     16          1           0        1.510460   -2.386485    7.052528
     17          6           0        1.672051   -2.386485    0.000000
     18          6           0        0.992762   -2.386485   -1.224029
     19          6           0       -1.141721   -2.386485    0.000000
     20          6           0       -0.462432   -2.386485   -1.224029
     21          1           0        2.757674   -2.386485    0.000000
     22          1           0       -2.227342   -2.386485    0.000000
     23          6           0        1.671556   -2.386485   -2.463318
     24          6           0        0.991997   -2.386485   -3.671276
     25          6           0       -1.141226   -2.386485   -2.463317
     26          6           0       -0.461667   -2.386485   -3.671276
     27          1           0        2.757273   -2.386485   -2.463929
     28          1           0       -2.226942   -2.386485   -2.463929
     29          6           0        1.673898   -2.386485   -4.933593
     30          6           0        0.981212   -2.386485   -6.106357
     31          6           0       -1.143569   -2.386485   -4.933593
     32          6           0       -0.450882   -2.386485   -6.106357
     33          1           0        2.758927   -2.386485   -4.933260
     34          1           0        1.510460   -2.386485   -7.052528
     35          1           0       -0.980130   -2.386485   -7.052528
     36          1           0       -2.228597   -2.386485   -4.933260
     37          6           0       -0.265165    3.113317    3.671276
     38          6           0       -0.265165    1.659653    3.671276
     39          6           0       -0.265165    3.795219    4.933593
     40          6           0       -0.265165    0.977752    4.933593
     41          6           0       -0.265165    3.102532    6.106357
     42          6           0       -0.265165    1.670438    6.106357
     43          6           0       -0.265165    3.792876    2.463318
     44          6           0       -0.265165    3.114082    1.224029
     45          6           0       -0.265165    0.980095    2.463317
     46          6           0       -0.265165    1.658889    1.224029
     47          1           0       -0.265165    4.880247    4.933260
     48          1           0       -0.265165    4.878594    2.463929
     49          1           0       -0.265165   -0.105622    2.463929
     50          1           0       -0.265165   -0.107276    4.933260
     51          1           0       -0.265165    1.141190    7.052528
     52          1           0       -0.265165    3.631780    7.052528
     53          6           0       -0.265165    3.793371    0.000000
     54          6           0       -0.265165    3.114082   -1.224029
     55          6           0       -0.265165    0.979600    0.000000
     56          6           0       -0.265165    1.658889   -1.224029
     57          1           0       -0.265165    4.878994    0.000000
     58          1           0       -0.265165   -0.106022    0.000000
     59          6           0       -0.265165    3.792876   -2.463318
     60          6           0       -0.265165    3.113317   -3.671276
     61          6           0       -0.265165    0.980095   -2.463317
     62          6           0       -0.265165    1.659653   -3.671276
     63          1           0       -0.265165    4.878594   -2.463929
     64          1           0       -0.265165   -0.105622   -2.463929
     65          6           0       -0.265165    3.795219   -4.933593
     66          6           0       -0.265165    3.102532   -6.106357
     67          6           0       -0.265165    0.977752   -4.933593
     68          6           0       -0.265165    1.670438   -6.106357
     69          1           0       -0.265165    4.880247   -4.933260
     70          1           0       -0.265165    3.631780   -7.052528
     71          1           0       -0.265165    1.141190   -7.052528
     72          1           0       -0.265165   -0.107276   -4.933260
 ---------------------------------------------------------------------
 Rotational constants (GHZ):           0.1272714           0.0563744           0.0415210
 Leave Link  202 at Wed Sep 27 16:56:54 2023, MaxMem=  3221225472 cpu:               0.6 elap:               0.1
 (Enter /home/center/opt/aarch64/apps/gaussian16/c01/g16/l122.exe)
 Counterpoise: doing full-system calculation.
 Leave Link  122 at Wed Sep 27 16:56:57 2023, MaxMem=  3221225472 cpu:               0.4 elap:               0.0
 (Enter /home/center/opt/aarch64/apps/gaussian16/c01/g16/l301.exe)
 Standard basis: 6-311G(d,p) (5D, 7F)
 Ernie: Thresh=  0.10000D-02 Tol=  0.10000D-05 Strict=F.
 There are   528 symmetry adapted cartesian basis functions of A'  symmetry.
 There are   476 symmetry adapted cartesian basis functions of A"  symmetry.
 There are   504 symmetry adapted basis functions of A'  symmetry.
 There are   456 symmetry adapted basis functions of A"  symmetry.
   960 basis functions,  1632 primitive gaussians,  1004 cartesian basis functions
   146 alpha electrons      146 beta electrons
       nuclear repulsion energy      4744.3206974649 Hartrees.
 IExCor=  402 DFT=T Ex+Corr=B3LYP ExCW=0 ScaHFX=  0.200000
 ScaDFX=  0.800000  0.720000  1.000000  0.810000 ScalE2=  1.000000  1.000000
 IRadAn=      5 IRanWt=     -1 IRanGd=            0 ICorTp=0 IEmpDi=131
 NAtoms=   72 NActive=   72 NUniq=   40 SFac= 3.24D+00 NAtFMM=   60 NAOKFM=T Big=F
 Integral buffers will be    131072 words long.
 Raffenetti 2 integral format.
 Two-electron integral symmetry is turned on.
 R6Disp:  Grimme-D3 Dispersion energy=       -0.0917880060 Hartrees.
 Nuclear repulsion after empirical dispersion term =     4744.2289094589 Hartrees.
 Leave Link  301 at Wed Sep 27 16:56:59 2023, MaxMem=  3221225472 cpu:               2.0 elap:               0.1
 (Enter /home/center/opt/aarch64/apps/gaussian16/c01/g16/l302.exe)
 NPDir=0 NMtPBC=     1 NCelOv=     1 NCel=       1 NClECP=     1 NCelD=      1
         NCelK=      1 NCelE2=     1 NClLst=     1 CellRange=     0.0.
 One-electron integrals computed using PRISM.
 One-electron integral symmetry used in STVInt
 NBasis=   960 RedAO= T EigKep=  3.67D-05  NBF=   504   456
 NBsUse=   960 1.00D-06 EigRej= -1.00D+00 NBFU=   504   456
 Precomputing XC quadrature grid using
 IXCGrd= 4 IRadAn=           5 IRanWt=          -1 IRanGd=           0 AccXCQ= 0.00D+00.
 Generated NRdTot=       0 NPtTot=           0 NUsed=           0 NTot=          32
 NSgBfM=   991   991   991   991   991 MxSgAt=    72 MxSgA2=    72.
 Leave Link  302 at Wed Sep 27 16:57:03 2023, MaxMem=  3221225472 cpu:              51.5 elap:               2.0
 (Enter /home/center/opt/aarch64/apps/gaussian16/c01/g16/l303.exe)
 DipDrv:  MaxL=1.
 Leave Link  303 at Wed Sep 27 16:57:06 2023, MaxMem=  3221225472 cpu:              13.8 elap:               0.4
 (Enter /home/center/opt/aarch64/apps/gaussian16/c01/g16/l401.exe)
 ExpMin= 1.03D-01 ExpMax= 4.56D+03 ExpMxC= 6.82D+02 IAcc=3 IRadAn=         5 AccDes= 0.00D+00
 Harris functional with IExCor=  402 and IRadAn=       5 diagonalized for initial guess.
 HarFok:  IExCor=  402 AccDes= 0.00D+00 IRadAn=         5 IDoV= 1 UseB2=F ITyADJ=14
 ICtDFT=  3500011 ScaDFX=  1.000000  1.000000  1.000000  1.000000
 FoFCou: FMM=F IPFlag=           0 FMFlag=      100000 FMFlg1=        2000
         NFxFlg=           0 DoJE=T BraDBF=F KetDBF=T FulRan=T
         wScrn=  0.000000 ICntrl=       500 IOpCl=  0 I1Cent=   200000004 NGrid=           0
         NMat0=    1 NMatS0=      1 NMatT0=    0 NMatD0=    1 NMtDS0=    0 NMtDT0=    0
 Petite list used in FoFCou.
 Harris En= -1694.13067550373    
 JPrj=0 DoOrth=F DoCkMO=F.
 Initial guess orbital symmetries:
       Occupied  (A") (A') (A") (A') (A") (A') (A') (A") (A") (A')
                 (A") (A') (A") (A') (A") (A') (A") (A') (A') (A")
                 (A') (A") (A') (A") (A') (A') (A') (A') (A") (A')
                 (A") (A') (A") (A') (A") (A') (A") (A') (A") (A')
                 (A") (A') (A') (A") (A') (A') (A") (A") (A') (A')
                 (A") (A") (A') (A') (A') (A') (A") (A") (A') (A')
                 (A") (A") (A") (A") (A') (A') (A') (A') (A") (A")
                 (A") (A") (A') (A') (A") (A") (A') (A') (A') (A')
                 (A') (A') (A") (A") (A") (A") (A') (A") (A") (A')
                 (A') (A') (A") (A") (A') (A') (A') (A") (A') (A")
                 (A') (A') (A") (A") (A") (A") (A') (A') (A') (A')
                 (A") (A") (A') (A') (A") (A") (A') (A") (A') (A")
                 (A') (A") (A") (A') (A') (A') (A") (A") (A') (A')
                 (A") (A") (A') (A') (A") (A") (A') (A') (A') (A')
                 (A") (A") (A") (A") (A') (A')
       Virtual   (A') (A') (A") (A") (A") (A") (A') (A') (A') (A')
                 (A") (A") (A') (A') (A") (A") (A') (A") (A') (A')
                 (A') (A') (A") (A') (A") (A') (A") (A") (A') (A')
                 (A") (A') (A") (A") (A") (A') (A') (A") (A') (A")
                 (A') (A') (A') (A") (A") (A') (A") (A') (A') (A')
                 (A') (A") (A') (A") (A') (A') (A") (A") (A') (A')
                 (A") (A") (A") (A") (A') (A') (A") (A') (A") (A")
                 (A') (A") (A') (A') (A") (A') (A") (A") (A') (A')
                 (A") (A') (A') (A") (A') (A") (A') (A") (A') (A')
                 (A") (A') (A') (A") (A") (A") (A') (A") (A') (A")
                 (A') (A') (A') (A") (A") (A') (A") (A') (A") (A')
                 (A') (A") (A') (A") (A') (A') (A") (A") (A') (A')
                 (A") (A') (A") (A") (A') (A') (A") (A') (A") (A')
                 (A") (A') (A") (A') (A") (A') (A") (A") (A') (A')
                 (A') (A") (A") (A") (A') (A') (A') (A") (A') (A')
                 (A') (A') (A") (A") (A") (A") (A") (A') (A') (A")
                 (A') (A') (A") (A") (A') (A') (A") (A') (A') (A")
                 (A') (A") (A') (A') (A") (A') (A') (A") (A") (A")
                 (A') (A") (A') (A') (A") (A') (A") (A') (A") (A')
                 (A') (A') (A") (A") (A') (A") (A") (A') (A") (A')
                 (A") (A') (A") (A') (A') (A') (A") (A") (A') (A")
                 (A') (A") (A') (A") (A') (A") (A") (A') (A") (A')
                 (A") (A") (A') (A') (A") (A') (A') (A') (A") (A')
                 (A") (A') (A') (A') (A") (A') (A") (A") (A') (A")
                 (A") (A') (A") (A') (A') (A") (A') (A") (A') (A")
                 (A') (A") (A') (A") (A') (A") (A") (A') (A') (A")
                 (A") (A') (A") (A') (A") (A') (A") (A') (A") (A")
                 (A') (A") (A') (A') (A") (A') (A') (A") (A') (A')
                 (A") (A") (A') (A") (A') (A") (A') (A") (A") (A')
                 (A') (A") (A') (A") (A") (A") (A') (A") (A') (A')
                 (A") (A') (A') (A') (A") (A') (A") (A") (A') (A")
                 (A") (A') (A") (A') (A") (A') (A') (A') (A') (A")
                 (A") (A') (A') (A") (A') (A") (A") (A") (A') (A")
                 (A") (A') (A') (A") (A") (A') (A') (A') (A") (A")
                 (A') (A') (A") (A') (A') (A") (A') (A') (A") (A")
                 (A') (A") (A') (A') (A') (A") (A') (A') (A") (A")
                 (A') (A') (A") (A') (A") (A') (A") (A") (A") (A")
                 (A') (A") (A') (A") (A") (A') (A') (A") (A') (A")
                 (A') (A') (A") (A') (A') (A") (A') (A') (A") (A')
                 (A") (A') (A') (A") (A") (A') (A') (A") (A") (A')
                 (A") (A") (A') (A') (A') (A") (A") (A') (A") (A')
                 (A') (A') (A") (A') (A") (A') (A') (A") (A") (A')
                 (A') (A') (A") (A") (A') (A') (A") (A') (A") (A")
                 (A') (A") (A") (A') (A") (A') (A") (A') (A") (A")
                 (A") (A') (A') (A") (A') (A') (A") (A") (A') (A')
                 (A") (A') (A') (A") (A") (A') (A") (A") (A') (A")
                 (A') (A') (A") (A') (A") (A") (A') (A') (A") (A')
                 (A') (A") (A") (A') (A') (A") (A') (A") (A') (A")
                 (A') (A") (A') (A') (A") (A") (A") (A") (A") (A')
                 (A') (A") (A') (A") (A") (A") (A') (A") (A') (A')
                 (A") (A') (A') (A") (A') (A') (A") (A') (A") (A")
                 (A') (A') (A") (A") (A') (A') (A") (A") (A') (A")
                 (A') (A') (A") (A') (A") (A') (A") (A") (A') (A')
                 (A') (A") (A") (A") (A') (A') (A") (A') (A") (A')
                 (A") (A") (A') (A') (A') (A") (A") (A") (A') (A")
                 (A") (A') (A") (A') (A') (A") (A') (A") (A') (A')
                 (A") (A') (A') (A") (A") (A') (A") (A') (A') (A")
                 (A") (A") (A') (A') (A") (A") (A') (A') (A") (A')
                 (A') (A") (A') (A') (A") (A') (A') (A') (A") (A')
                 (A") (A') (A") (A') (A") (A") (A") (A') (A") (A')
                 (A") (A') (A') (A") (A') (A') (A") (A') (A') (A")
                 (A') (A") (A") (A') (A') (A") (A') (A") (A') (A')
                 (A") (A") (A') (A") (A") (A') (A") (A') (A") (A')
                 (A') (A") (A') (A') (A") (A') (A') (A") (A") (A")
                 (A') (A") (A') (A") (A') (A") (A') (A") (A') (A')
                 (A') (A") (A') (A') (A") (A') (A") (A') (A') (A")
                 (A") (A') (A") (A") (A') (A") (A') (A') (A') (A")
                 (A") (A') (A') (A") (A") (A') (A") (A") (A') (A')
                 (A") (A') (A') (A") (A') (A") (A") (A') (A") (A")
                 (A') (A") (A') (A') (A") (A') (A') (A") (A') (A")
                 (A") (A') (A") (A') (A') (A") (A') (A") (A") (A')
                 (A") (A") (A') (A') (A") (A') (A') (A") (A') (A')
                 (A") (A") (A') (A') (A") (A') (A") (A') (A") (A')
                 (A') (A") (A') (A") (A") (A') (A") (A') (A') (A")
                 (A') (A") (A') (A") (A') (A') (A") (A') (A') (A")
                 (A') (A') (A") (A") (A') (A") (A') (A') (A") (A")
                 (A") (A') (A") (A') (A") (A") (A') (A") (A') (A")
                 (A') (A') (A") (A") (A') (A') (A') (A') (A") (A")
                 (A") (A') (A") (A') (A") (A') (A") (A') (A') (A')
                 (A") (A") (A") (A") (A') (A') (A') (A') (A") (A")
                 (A') (A') (A") (A") (A') (A') (A") (A') (A") (A')
                 (A') (A") (A') (A")
 The electronic state of the initial guess is 1-A'.
 Leave Link  401 at Wed Sep 27 16:57:11 2023, MaxMem=  3221225472 cpu:             107.7 elap:               2.7
 (Enter /home/center/opt/aarch64/apps/gaussian16/c01/g16/l502.exe)
 Integral symmetry usage will be decided dynamically.
 Closed shell SCF:
 Using DIIS extrapolation, IDIIS=  1040.
 NGot=  3221225472 LenX=  3219153746 LenY=  3218144726
 Requested convergence on RMS density matrix=1.00D-08 within 128 cycles.
 Requested convergence on MAX density matrix=1.00D-06.
 Requested convergence on             energy=1.00D-06.
 No special actions if energy rises.
 Fock matrices will be formed incrementally for  20 cycles.
 Integral accuracy reduced to 1.0D-05 until final iterations.

 Cycle   1  Pass 0  IDiag  1:
 FoFJK:  IHMeth= 1 ICntrl=       0 DoSepK=F KAlg= 0 I1Cent=           0 FoldK=F
 IRaf= 570000000 NMat=       1 IRICut=       1 DoRegI=T DoRafI=F ISym2E= 1 IDoP0=0 IntGTp=1.
 FoFCou: FMM=F IPFlag=           0 FMFlag=      100000 FMFlg1=        2000
         NFxFlg=           0 DoJE=F BraDBF=F KetDBF=F FulRan=T
         wScrn=  0.000000 ICntrl=         0 IOpCl=  0 I1Cent=           0 NGrid=           0
         NMat0=    1 NMatS0=      1 NMatT0=    0 NMatD0=    1 NMtDS0=    0 NMtDT0=    0
 Petite list used in FoFCou.
 E= -1693.18050858810    
 DIIS: error= 4.47D-02 at cycle   1 NSaved=   1.
 NSaved= 1 IEnMin= 1 EnMin= -1693.18050858810     IErMin= 1 ErrMin= 4.47D-02
 ErrMax= 4.47D-02  0.00D+00 EMaxC= 1.00D-01 BMatC= 8.92D-01 BMatP= 8.92D-01
 IDIUse=3 WtCom= 5.53D-01 WtEn= 4.47D-01
 Coeff-Com:  0.100D+01
 Coeff-En:   0.100D+01
 Coeff:      0.100D+01
 Gap=     0.056 Goal=   None    Shift=    0.000
 GapD=    0.056 DampG=0.500 DampE=0.500 DampFc=0.2500 IDamp=-1.
 Damping current iteration by 2.50D-01
 RMSDP=1.74D-03 MaxDP=8.40D-02              OVMax= 1.54D-01

 Cycle   2  Pass 0  IDiag  1:
 RMSU=  4.20D-04    CP:  9.82D-01
 E= -1693.48518268346     Delta-E=       -0.304674095367 Rises=F Damp=T
 DIIS: error= 2.62D-02 at cycle   2 NSaved=   2.
 NSaved= 2 IEnMin= 2 EnMin= -1693.48518268346     IErMin= 2 ErrMin= 2.62D-02
 ErrMax= 2.62D-02  0.00D+00 EMaxC= 1.00D-01 BMatC= 2.99D-01 BMatP= 8.92D-01
 IDIUse=3 WtCom= 7.38D-01 WtEn= 2.62D-01
 Coeff-Com: -0.122D+01 0.222D+01
 Coeff-En:   0.000D+00 0.100D+01
 Coeff:     -0.903D+00 0.190D+01
 Gap=     0.055 Goal=   None    Shift=    0.000
 RMSDP=7.00D-04 MaxDP=3.43D-02 DE=-3.05D-01 OVMax= 1.32D-01

 Cycle   3  Pass 0  IDiag  1:
 RMSU=  4.37D-04    CP:  9.57D-01  2.25D+00
 E= -1694.04211885640     Delta-E=       -0.556936172939 Rises=F Damp=F
 DIIS: error= 6.08D-03 at cycle   3 NSaved=   3.
 NSaved= 3 IEnMin= 3 EnMin= -1694.04211885640     IErMin= 3 ErrMin= 6.08D-03
 ErrMax= 6.08D-03  0.00D+00 EMaxC= 1.00D-01 BMatC= 1.32D-02 BMatP= 2.99D-01
 IDIUse=3 WtCom= 9.39D-01 WtEn= 6.08D-02
 Coeff-Com: -0.283D+00 0.570D+00 0.713D+00
 Coeff-En:   0.000D+00 0.000D+00 0.100D+01
 Coeff:     -0.266D+00 0.535D+00 0.731D+00
 Gap=     0.063 Goal=   None    Shift=    0.000
 RMSDP=2.84D-04 MaxDP=1.84D-02 DE=-5.57D-01 OVMax= 1.56D-01

 Cycle   4  Pass 0  IDiag  1:
 RMSU=  2.39D-04    CP:  9.58D-01  2.16D+00  6.62D-01
 E= -1694.03286589287     Delta-E=        0.009252963529 Rises=F Damp=F
 DIIS: error= 1.05D-02 at cycle   4 NSaved=   4.
 NSaved= 4 IEnMin= 3 EnMin= -1694.04211885640     IErMin= 3 ErrMin= 6.08D-03
 ErrMax= 1.05D-02  0.00D+00 EMaxC= 1.00D-01 BMatC= 1.93D-02 BMatP= 1.32D-02
 IDIUse=2 WtCom= 0.00D+00 WtEn= 1.00D+00
 Coeff-En:   0.000D+00 0.000D+00 0.597D+00 0.403D+00
 Coeff:      0.000D+00 0.000D+00 0.597D+00 0.403D+00
 Gap=     0.058 Goal=   None    Shift=    0.000
 RMSDP=1.66D-04 MaxDP=1.23D-02 DE= 9.25D-03 OVMax= 1.18D-01

 Cycle   5  Pass 0  IDiag  1:
 RMSU=  8.20D-05    CP:  9.57D-01  2.15D+00  7.70D-01  4.28D-01
 E= -1694.05552557387     Delta-E=       -0.022659681001 Rises=F Damp=F
 DIIS: error= 2.09D-03 at cycle   5 NSaved=   5.
 NSaved= 5 IEnMin= 5 EnMin= -1694.05552557387     IErMin= 5 ErrMin= 2.09D-03
 ErrMax= 2.09D-03  0.00D+00 EMaxC= 1.00D-01 BMatC= 1.08D-03 BMatP= 1.32D-02
 IDIUse=3 WtCom= 9.79D-01 WtEn= 2.09D-02
 Coeff-Com: -0.168D-01 0.370D-01 0.275D+00 0.213D+00 0.492D+00
 Coeff-En:   0.000D+00 0.000D+00 0.000D+00 0.000D+00 0.100D+01
 Coeff:     -0.164D-01 0.363D-01 0.269D+00 0.208D+00 0.503D+00
 Gap=     0.059 Goal=   None    Shift=    0.000
 RMSDP=4.95D-05 MaxDP=3.76D-03 DE=-2.27D-02 OVMax= 2.96D-02

 Cycle   6  Pass 0  IDiag  1:
 RMSU=  3.21D-05    CP:  9.57D-01  2.17D+00  7.85D-01  4.72D-01  5.86D-01
 E= -1694.05625093458     Delta-E=       -0.000725360711 Rises=F Damp=F
 DIIS: error= 1.25D-03 at cycle   6 NSaved=   6.
 NSaved= 6 IEnMin= 6 EnMin= -1694.05625093458     IErMin= 6 ErrMin= 1.25D-03
 ErrMax= 1.25D-03  0.00D+00 EMaxC= 1.00D-01 BMatC= 3.47D-04 BMatP= 1.08D-03
 IDIUse=3 WtCom= 9.87D-01 WtEn= 1.25D-02
 Coeff-Com: -0.539D-02 0.851D-02 0.119D+00 0.967D-01 0.378D+00 0.403D+00
 Coeff-En:   0.000D+00 0.000D+00 0.000D+00 0.000D+00 0.294D+00 0.706D+00
 Coeff:     -0.533D-02 0.841D-02 0.118D+00 0.955D-01 0.377D+00 0.406D+00
 Gap=     0.058 Goal=   None    Shift=    0.000
 RMSDP=2.51D-05 MaxDP=1.68D-03 DE=-7.25D-04 OVMax= 1.24D-02

 Cycle   7  Pass 0  IDiag  1:
 RMSU=  9.15D-06    CP:  9.57D-01  2.17D+00  7.90D-01  4.54D-01  6.45D-01
                    CP:  3.03D-01
 E= -1694.05666267385     Delta-E=       -0.000411739268 Rises=F Damp=F
 DIIS: error= 3.42D-04 at cycle   7 NSaved=   7.
 NSaved= 7 IEnMin= 7 EnMin= -1694.05666267385     IErMin= 7 ErrMin= 3.42D-04
 ErrMax= 3.42D-04  0.00D+00 EMaxC= 1.00D-01 BMatC= 2.14D-05 BMatP= 3.47D-04
 IDIUse=3 WtCom= 9.97D-01 WtEn= 3.42D-03
 Coeff-Com: -0.138D-02 0.146D-02 0.586D-01 0.473D-01 0.209D+00 0.270D+00
 Coeff-Com:  0.415D+00
 Coeff-En:   0.000D+00 0.000D+00 0.000D+00 0.000D+00 0.000D+00 0.733D-02
 Coeff-En:   0.993D+00
 Coeff:     -0.137D-02 0.146D-02 0.584D-01 0.471D-01 0.209D+00 0.269D+00
 Coeff:      0.417D+00
 Gap=     0.058 Goal=   None    Shift=    0.000
 RMSDP=6.03D-06 MaxDP=2.42D-04 DE=-4.12D-04 OVMax= 1.76D-03

 Initial convergence to 1.0D-05 achieved.  Increase integral accuracy.
 Cycle   8  Pass 1  IDiag  1:
 E= -1694.05639920460     Delta-E=        0.000263469256 Rises=F Damp=F
 DIIS: error= 8.46D-04 at cycle   1 NSaved=   1.
 NSaved= 1 IEnMin= 1 EnMin= -1694.05639920460     IErMin= 1 ErrMin= 8.46D-04
 ErrMax= 8.46D-04  0.00D+00 EMaxC= 1.00D-01 BMatC= 4.37D-05 BMatP= 4.37D-05
 IDIUse=3 WtCom= 9.92D-01 WtEn= 8.46D-03
 Coeff-Com:  0.100D+01
 Coeff-En:   0.100D+01
 Coeff:      0.100D+01
 Gap=     0.058 Goal=   None    Shift=    0.000
 RMSDP=6.03D-06 MaxDP=2.42D-04 DE= 2.63D-04 OVMax= 2.02D-03

 Cycle   9  Pass 1  IDiag  1:
 RMSU=  2.96D-04    CP:  9.99D-01
 E= -1694.05643370264     Delta-E=       -0.000034498046 Rises=F Damp=F
 DIIS: error= 1.62D-04 at cycle   2 NSaved=   2.
 NSaved= 2 IEnMin= 2 EnMin= -1694.05643370264     IErMin= 2 ErrMin= 1.62D-04
 ErrMax= 1.62D-04  0.00D+00 EMaxC= 1.00D-01 BMatC= 4.91D-06 BMatP= 4.37D-05
 IDIUse=3 WtCom= 9.98D-01 WtEn= 1.62D-03
 Coeff-Com:  0.128D+00 0.872D+00
 Coeff-En:   0.000D+00 0.100D+01
 Coeff:      0.128D+00 0.872D+00
 Gap=     0.058 Goal=   None    Shift=    0.000
 RMSDP=8.37D-06 MaxDP=6.20D-04 DE=-3.45D-05 OVMax= 5.11D-03

 Cycle  10  Pass 1  IDiag  1:
 RMSU=  8.02D-06    CP:  9.99D-01  1.01D+00
 E= -1694.05641097984     Delta-E=        0.000022722802 Rises=F Damp=F
 DIIS: error= 3.96D-04 at cycle   3 NSaved=   3.
 NSaved= 3 IEnMin= 2 EnMin= -1694.05643370264     IErMin= 2 ErrMin= 1.62D-04
 ErrMax= 3.96D-04  0.00D+00 EMaxC= 1.00D-01 BMatC= 2.31D-05 BMatP= 4.91D-06
 IDIUse=3 WtCom= 3.35D-01 WtEn= 6.65D-01
 Coeff-Com:  0.888D-03 0.686D+00 0.313D+00
 Coeff-En:   0.000D+00 0.762D+00 0.238D+00
 Coeff:      0.297D-03 0.737D+00 0.263D+00
 Gap=     0.058 Goal=   None    Shift=    0.000
 RMSDP=4.89D-06 MaxDP=3.57D-04 DE= 2.27D-05 OVMax= 3.20D-03

 Cycle  11  Pass 1  IDiag  1:
 RMSU=  1.10D-06    CP:  9.99D-01  1.01D+00  4.08D-01
 E= -1694.05643856703     Delta-E=       -0.000027587193 Rises=F Damp=F
 DIIS: error= 4.39D-05 at cycle   4 NSaved=   4.
 NSaved= 4 IEnMin= 4 EnMin= -1694.05643856703     IErMin= 4 ErrMin= 4.39D-05
 ErrMax= 4.39D-05  0.00D+00 EMaxC= 1.00D-01 BMatC= 8.62D-07 BMatP= 4.91D-06
 IDIUse=1 WtCom= 1.00D+00 WtEn= 0.00D+00
 Coeff-Com: -0.353D-02 0.448D+00 0.137D+00 0.419D+00
 Coeff:     -0.353D-02 0.448D+00 0.137D+00 0.419D+00
 Gap=     0.058 Goal=   None    Shift=    0.000
 RMSDP=9.47D-07 MaxDP=6.71D-05 DE=-2.76D-05 OVMax= 4.29D-04

 Cycle  12  Pass 1  IDiag  1:
 RMSU=  4.08D-07    CP:  9.99D-01  1.01D+00  3.11D-01  6.85D-01
 E= -1694.05643948678     Delta-E=       -0.000000919747 Rises=F Damp=F
 DIIS: error= 5.51D-06 at cycle   5 NSaved=   5.
 NSaved= 5 IEnMin= 5 EnMin= -1694.05643948678     IErMin= 5 ErrMin= 5.51D-06
 ErrMax= 5.51D-06  0.00D+00 EMaxC= 1.00D-01 BMatC= 5.79D-09 BMatP= 8.62D-07
 IDIUse=1 WtCom= 1.00D+00 WtEn= 0.00D+00
 Coeff-Com: -0.220D-02 0.265D+00 0.800D-01 0.258D+00 0.399D+00
 Coeff:     -0.220D-02 0.265D+00 0.800D-01 0.258D+00 0.399D+00
 Gap=     0.058 Goal=   None    Shift=    0.000
 RMSDP=1.03D-07 MaxDP=7.01D-06 DE=-9.20D-07 OVMax= 6.25D-05

 Cycle  13  Pass 1  IDiag  1:
 RMSU=  9.49D-08    CP:  9.99D-01  1.01D+00  3.12D-01  7.00D-01  9.15D-01
 E= -1694.05643949294     Delta-E=       -0.000000006160 Rises=F Damp=F
 DIIS: error= 2.10D-06 at cycle   6 NSaved=   6.
 NSaved= 6 IEnMin= 6 EnMin= -1694.05643949294     IErMin= 6 ErrMin= 2.10D-06
 ErrMax= 2.10D-06  0.00D+00 EMaxC= 1.00D-01 BMatC= 7.30D-10 BMatP= 5.79D-09
 IDIUse=1 WtCom= 1.00D+00 WtEn= 0.00D+00
 Coeff-Com: -0.866D-03 0.101D+00 0.301D-01 0.101D+00 0.265D+00 0.504D+00
 Coeff:     -0.866D-03 0.101D+00 0.301D-01 0.101D+00 0.265D+00 0.504D+00
 Gap=     0.058 Goal=   None    Shift=    0.000
 RMSDP=4.24D-08 MaxDP=3.41D-06 DE=-6.16D-09 OVMax= 2.92D-05

 Cycle  14  Pass 1  IDiag  1:
 RMSU=  3.21D-08    CP:  9.99D-01  1.01D+00  3.12D-01  6.93D-01  9.41D-01
                    CP:  7.44D-01
 E= -1694.05643949371     Delta-E=       -0.000000000769 Rises=F Damp=F
 DIIS: error= 8.92D-07 at cycle   7 NSaved=   7.
 NSaved= 7 IEnMin= 7 EnMin= -1694.05643949371     IErMin= 7 ErrMin= 8.92D-07
 ErrMax= 8.92D-07  0.00D+00 EMaxC= 1.00D-01 BMatC= 1.32D-10 BMatP= 7.30D-10
 IDIUse=1 WtCom= 1.00D+00 WtEn= 0.00D+00
 Coeff-Com: -0.418D-03 0.479D-01 0.140D-01 0.486D-01 0.144D+00 0.356D+00
 Coeff-Com:  0.390D+00
 Coeff:     -0.418D-03 0.479D-01 0.140D-01 0.486D-01 0.144D+00 0.356D+00
 Coeff:      0.390D+00
 Gap=     0.058 Goal=   None    Shift=    0.000
 RMSDP=1.57D-08 MaxDP=8.16D-07 DE=-7.69D-10 OVMax= 8.32D-06

 Cycle  15  Pass 1  IDiag  1:
 RMSU=  8.83D-09    CP:  9.99D-01  1.01D+00  3.12D-01  6.95D-01  9.43D-01
                    CP:  7.84D-01  6.26D-01
 E= -1694.05643949385     Delta-E=       -0.000000000139 Rises=F Damp=F
 DIIS: error= 2.15D-07 at cycle   8 NSaved=   8.
 NSaved= 8 IEnMin= 8 EnMin= -1694.05643949385     IErMin= 8 ErrMin= 2.15D-07
 ErrMax= 2.15D-07  0.00D+00 EMaxC= 1.00D-01 BMatC= 1.30D-11 BMatP= 1.32D-10
 IDIUse=1 WtCom= 1.00D+00 WtEn= 0.00D+00
 Coeff-Com:  0.160D-04-0.247D-02-0.115D-02-0.110D-02 0.866D-02 0.991D-01
 Coeff-Com:  0.232D+00 0.665D+00
 Coeff:      0.160D-04-0.247D-02-0.115D-02-0.110D-02 0.866D-02 0.991D-01
 Coeff:      0.232D+00 0.665D+00
 Gap=     0.058 Goal=   None    Shift=    0.000
 RMSDP=5.45D-09 MaxDP=2.33D-07 DE=-1.39D-10 OVMax= 2.40D-06

 SCF Done:  E(RB3LYP) =  -1694.05643949     A.U. after   15 cycles
            NFock= 15  Conv=0.54D-08     -V/T= 2.0043
 KE= 1.686782727627D+03 PE=-1.341912601149D+04 EE= 5.294057934909D+03
 Leave Link  502 at Wed Sep 27 16:59:04 2023, MaxMem=  3221225472 cpu:            4060.1 elap:             110.9
 (Enter /home/center/opt/aarch64/apps/gaussian16/c01/g16/l601.exe)
 Copying SCF densities to generalized density rwf, IOpCl= 0 IROHF=0.

 **********************************************************************

            Population analysis using the SCF Density.

 **********************************************************************

 Orbital symmetries:
       Occupied  (A") (A') (A') (A") (A") (A') (A') (A") (A') (A')
                 (A") (A') (A") (A') (A") (A') (A") (A') (A') (A")
                 (A") (A') (A") (A') (A") (A') (A') (A") (A') (A")
                 (A") (A') (A") (A') (A') (A") (A') (A") (A') (A')
                 (A") (A') (A") (A') (A') (A") (A') (A") (A') (A')
                 (A") (A") (A') (A') (A") (A') (A') (A") (A') (A")
                 (A') (A") (A") (A") (A') (A') (A') (A') (A") (A")
                 (A') (A") (A") (A") (A') (A') (A") (A') (A') (A')
                 (A') (A") (A") (A') (A") (A") (A') (A") (A') (A')
                 (A") (A') (A") (A") (A') (A') (A") (A') (A") (A')
                 (A") (A') (A') (A') (A') (A") (A") (A') (A") (A')
                 (A') (A') (A") (A") (A") (A") (A") (A') (A") (A')
                 (A') (A') (A') (A") (A") (A') (A') (A") (A') (A")
                 (A") (A") (A') (A") (A') (A') (A") (A') (A') (A")
                 (A') (A") (A") (A") (A') (A')
       Virtual   (A') (A') (A") (A") (A") (A") (A') (A') (A') (A")
                 (A') (A') (A") (A') (A') (A") (A') (A') (A") (A")
                 (A') (A') (A") (A") (A') (A") (A') (A") (A") (A')
                 (A") (A') (A") (A') (A') (A') (A") (A") (A') (A")
                 (A') (A') (A') (A") (A") (A') (A') (A") (A") (A")
                 (A') (A') (A') (A') (A') (A") (A') (A') (A") (A")
                 (A') (A") (A") (A") (A') (A") (A') (A") (A') (A")
                 (A') (A') (A") (A') (A') (A") (A") (A') (A") (A')
                 (A") (A') (A') (A") (A') (A') (A") (A') (A') (A")
                 (A") (A') (A") (A') (A') (A") (A') (A") (A') (A')
                 (A") (A") (A') (A') (A") (A") (A") (A') (A") (A")
                 (A') (A') (A") (A') (A") (A') (A') (A') (A") (A")
                 (A') (A') (A") (A') (A') (A') (A") (A') (A") (A")
                 (A') (A') (A") (A') (A') (A') (A") (A") (A") (A')
                 (A') (A') (A") (A") (A') (A") (A') (A") (A") (A')
                 (A') (A") (A") (A") (A') (A") (A') (A') (A') (A')
                 (A") (A") (A') (A") (A') (A') (A") (A') (A") (A")
                 (A') (A') (A') (A") (A') (A") (A") (A") (A') (A")
                 (A") (A') (A') (A") (A') (A") (A") (A') (A") (A')
                 (A') (A") (A') (A') (A") (A') (A") (A") (A') (A')
                 (A") (A') (A') (A") (A') (A") (A') (A') (A") (A")
                 (A') (A') (A") (A") (A') (A") (A') (A') (A") (A")
                 (A') (A") (A") (A') (A') (A') (A") (A") (A') (A")
                 (A') (A') (A') (A') (A") (A") (A') (A") (A') (A")
                 (A') (A") (A") (A') (A') (A") (A") (A') (A') (A")
                 (A') (A") (A') (A") (A") (A') (A") (A') (A") (A')
                 (A') (A") (A') (A") (A') (A") (A") (A') (A") (A')
                 (A") (A') (A') (A") (A') (A") (A") (A') (A') (A")
                 (A') (A") (A") (A') (A') (A") (A") (A') (A') (A")
                 (A') (A") (A") (A') (A') (A") (A') (A') (A") (A")
                 (A') (A") (A") (A') (A') (A") (A') (A') (A") (A')
                 (A") (A') (A") (A") (A') (A") (A') (A') (A") (A')
                 (A") (A') (A') (A") (A") (A') (A") (A") (A') (A")
                 (A") (A') (A") (A') (A') (A") (A') (A') (A") (A")
                 (A') (A') (A') (A") (A') (A") (A') (A') (A") (A")
                 (A') (A') (A") (A') (A') (A") (A') (A") (A') (A')
                 (A') (A") (A") (A') (A") (A') (A") (A") (A') (A")
                 (A") (A') (A") (A") (A') (A") (A') (A") (A") (A')
                 (A') (A') (A") (A') (A') (A') (A") (A") (A') (A')
                 (A') (A") (A") (A') (A") (A') (A") (A') (A') (A")
                 (A") (A') (A") (A') (A") (A") (A') (A') (A') (A")
                 (A') (A') (A") (A') (A') (A") (A") (A') (A') (A")
                 (A") (A') (A') (A") (A") (A') (A') (A') (A") (A")
                 (A') (A') (A") (A") (A") (A') (A") (A") (A') (A')
                 (A") (A") (A') (A") (A') (A") (A') (A") (A') (A')
                 (A") (A') (A") (A') (A") (A") (A') (A") (A') (A')
                 (A") (A') (A") (A') (A") (A') (A') (A") (A") (A')
                 (A') (A") (A") (A') (A") (A') (A') (A") (A') (A")
                 (A') (A") (A') (A") (A') (A") (A") (A") (A') (A")
                 (A") (A") (A') (A') (A") (A") (A') (A") (A') (A')
                 (A") (A') (A') (A") (A') (A') (A") (A") (A') (A')
                 (A") (A") (A') (A') (A") (A') (A") (A') (A") (A")
                 (A') (A') (A') (A") (A") (A') (A") (A") (A') (A")
                 (A') (A") (A') (A") (A') (A") (A") (A') (A') (A')
                 (A') (A") (A") (A') (A") (A') (A") (A") (A') (A")
                 (A') (A") (A") (A') (A") (A') (A') (A") (A') (A')
                 (A") (A') (A') (A") (A") (A") (A') (A') (A") (A')
                 (A') (A") (A') (A") (A') (A") (A') (A') (A') (A")
                 (A") (A") (A') (A') (A') (A") (A") (A") (A') (A')
                 (A") (A") (A') (A") (A') (A") (A') (A') (A") (A')
                 (A') (A') (A") (A') (A") (A') (A') (A") (A") (A')
                 (A") (A') (A") (A') (A") (A') (A') (A') (A") (A')
                 (A') (A") (A') (A") (A") (A") (A') (A') (A") (A")
                 (A') (A") (A") (A') (A') (A') (A") (A') (A") (A")
                 (A') (A') (A") (A') (A") (A') (A') (A") (A') (A")
                 (A') (A") (A') (A") (A') (A") (A') (A") (A') (A')
                 (A') (A") (A") (A") (A') (A') (A") (A') (A") (A')
                 (A") (A') (A") (A') (A") (A') (A") (A") (A') (A')
                 (A') (A') (A") (A") (A') (A") (A") (A') (A") (A")
                 (A') (A') (A") (A') (A') (A") (A') (A") (A") (A')
                 (A") (A') (A") (A') (A') (A") (A') (A") (A") (A')
                 (A") (A") (A') (A') (A") (A') (A') (A") (A') (A")
                 (A') (A") (A') (A') (A') (A") (A") (A') (A") (A')
                 (A') (A") (A') (A") (A") (A') (A') (A") (A") (A')
                 (A') (A") (A') (A") (A') (A') (A") (A') (A') (A")
                 (A') (A") (A') (A") (A') (A") (A') (A') (A") (A")
                 (A") (A') (A") (A") (A') (A') (A") (A") (A') (A")
                 (A') (A') (A") (A") (A') (A') (A') (A') (A") (A")
                 (A") (A') (A") (A') (A") (A') (A') (A") (A') (A")
                 (A') (A") (A") (A") (A') (A') (A") (A') (A') (A')
                 (A") (A") (A') (A') (A") (A') (A") (A') (A") (A')
                 (A') (A") (A') (A")
 The electronic state is 1-A'.
 Alpha  occ. eigenvalues --  -10.19916 -10.19916 -10.19880 -10.19879 -10.19787
 Alpha  occ. eigenvalues --  -10.19787 -10.19748 -10.19748 -10.18968 -10.18936
 Alpha  occ. eigenvalues --  -10.18892 -10.18892 -10.18873 -10.18873 -10.18710
 Alpha  occ. eigenvalues --  -10.18710 -10.18694 -10.18694 -10.18641 -10.18641
 Alpha  occ. eigenvalues --  -10.18592 -10.18592 -10.17705 -10.17705 -10.17670
 Alpha  occ. eigenvalues --  -10.17670 -10.17581 -10.17581 -10.17495 -10.17495
 Alpha  occ. eigenvalues --  -10.16851 -10.16851 -10.16760 -10.16760 -10.16699
 Alpha  occ. eigenvalues --  -10.16699 -10.16693 -10.16618 -10.16618 -10.16491
 Alpha  occ. eigenvalues --  -10.16445 -10.16445 -10.16352 -10.16352  -0.90420
 Alpha  occ. eigenvalues --   -0.88898  -0.88100  -0.86656  -0.86558  -0.84357
 Alpha  occ. eigenvalues --   -0.83405  -0.81234  -0.80795  -0.79496  -0.79248
 Alpha  occ. eigenvalues --   -0.78564  -0.77345  -0.77085  -0.76908  -0.75219
 Alpha  occ. eigenvalues --   -0.74777  -0.73812  -0.73072  -0.71695  -0.70124
 Alpha  occ. eigenvalues --   -0.68324  -0.67957  -0.66154  -0.63640  -0.63273
 Alpha  occ. eigenvalues --   -0.62013  -0.61529  -0.61204  -0.60838  -0.60168
 Alpha  occ. eigenvalues --   -0.59902  -0.58769  -0.58566  -0.58117  -0.56513
 Alpha  occ. eigenvalues --   -0.53617  -0.53454  -0.53152  -0.51561  -0.51399
 Alpha  occ. eigenvalues --   -0.51130  -0.50501  -0.49404  -0.48483  -0.47981
 Alpha  occ. eigenvalues --   -0.47383  -0.46956  -0.46387  -0.46382  -0.46087
 Alpha  occ. eigenvalues --   -0.45811  -0.44998  -0.44809  -0.44291  -0.44010
 Alpha  occ. eigenvalues --   -0.43388  -0.42791  -0.42666  -0.42425  -0.42364
 Alpha  occ. eigenvalues --   -0.41641  -0.41583  -0.41534  -0.41267  -0.40654
 Alpha  occ. eigenvalues --   -0.40420  -0.40207  -0.40181  -0.39463  -0.39165
 Alpha  occ. eigenvalues --   -0.39030  -0.38431  -0.37583  -0.37211  -0.37176
 Alpha  occ. eigenvalues --   -0.36378  -0.35604  -0.35213  -0.35003  -0.34628
 Alpha  occ. eigenvalues --   -0.33918  -0.33911  -0.33394  -0.33028  -0.32887
 Alpha  occ. eigenvalues --   -0.32496  -0.31813  -0.31105  -0.30437  -0.30292
 Alpha  occ. eigenvalues --   -0.29276  -0.28387  -0.27600  -0.27299  -0.25516
 Alpha  occ. eigenvalues --   -0.25363  -0.23604  -0.23231  -0.21326  -0.18927
 Alpha  occ. eigenvalues --   -0.16578
 Alpha virt. eigenvalues --   -0.10749  -0.08558  -0.05470  -0.03832  -0.03296
 Alpha virt. eigenvalues --   -0.01592  -0.01194   0.01020   0.01064   0.01215
 Alpha virt. eigenvalues --    0.01866   0.03211   0.03507   0.03847   0.03955
 Alpha virt. eigenvalues --    0.03961   0.04939   0.05708   0.05817   0.06086
 Alpha virt. eigenvalues --    0.06148   0.07017   0.07239   0.07352   0.07765
 Alpha virt. eigenvalues --    0.08499   0.08714   0.09418   0.09607   0.10105
 Alpha virt. eigenvalues --    0.10506   0.11050   0.11702   0.12103   0.13061
 Alpha virt. eigenvalues --    0.13163   0.13296   0.13422   0.14130   0.14274
 Alpha virt. eigenvalues --    0.15213   0.15726   0.16461   0.17052   0.17487
 Alpha virt. eigenvalues --    0.17707   0.18077   0.18100   0.19150   0.20126
 Alpha virt. eigenvalues --    0.20425   0.20761   0.21916   0.22071   0.23549
 Alpha virt. eigenvalues --    0.24123   0.24176   0.24523   0.24790   0.25357
 Alpha virt. eigenvalues --    0.25461   0.26376   0.26642   0.26785   0.26824
 Alpha virt. eigenvalues --    0.27331   0.27424   0.28460   0.28592   0.28698
 Alpha virt. eigenvalues --    0.29132   0.29452   0.29571   0.29981   0.30094
 Alpha virt. eigenvalues --    0.30268   0.30612   0.31213   0.31984   0.32030
 Alpha virt. eigenvalues --    0.32978   0.33421   0.33737   0.34052   0.34056
 Alpha virt. eigenvalues --    0.34645   0.34861   0.35295   0.35537   0.35791
 Alpha virt. eigenvalues --    0.35912   0.36420   0.36934   0.37593   0.37790
 Alpha virt. eigenvalues --    0.37891   0.38222   0.38787   0.38995   0.39139
 Alpha virt. eigenvalues --    0.39164   0.39383   0.39607   0.39870   0.39975
 Alpha virt. eigenvalues --    0.40165   0.40378   0.40551   0.40944   0.41304
 Alpha virt. eigenvalues --    0.41567   0.42093   0.42315   0.42411   0.42652
 Alpha virt. eigenvalues --    0.42698   0.43220   0.43343   0.43480   0.44133
 Alpha virt. eigenvalues --    0.44260   0.44491   0.44633   0.45080   0.45172
 Alpha virt. eigenvalues --    0.45264   0.45280   0.45464   0.45699   0.45890
 Alpha virt. eigenvalues --    0.45998   0.46250   0.46352   0.46511   0.46803
 Alpha virt. eigenvalues --    0.47053   0.47099   0.47609   0.47952   0.49002
 Alpha virt. eigenvalues --    0.49109   0.49811   0.49895   0.50257   0.50270
 Alpha virt. eigenvalues --    0.50507   0.50595   0.50721   0.51088   0.51451
 Alpha virt. eigenvalues --    0.51962   0.52026   0.52667   0.53025   0.53179
 Alpha virt. eigenvalues --    0.53800   0.54460   0.55052   0.55392   0.56099
 Alpha virt. eigenvalues --    0.56276   0.56708   0.57156   0.57654   0.58073
 Alpha virt. eigenvalues --    0.58363   0.58389   0.58732   0.58977   0.59288
 Alpha virt. eigenvalues --    0.59752   0.59870   0.60430   0.60794   0.61012
 Alpha virt. eigenvalues --    0.61302   0.61764   0.62195   0.62217   0.62503
 Alpha virt. eigenvalues --    0.62840   0.62907   0.63318   0.63637   0.63651
 Alpha virt. eigenvalues --    0.63922   0.64297   0.64397   0.64574   0.65001
 Alpha virt. eigenvalues --    0.65358   0.65681   0.65737   0.66287   0.66869
 Alpha virt. eigenvalues --    0.67155   0.67707   0.68665   0.69188   0.69498
 Alpha virt. eigenvalues --    0.69966   0.69996   0.70749   0.70984   0.71550
 Alpha virt. eigenvalues --    0.71594   0.72001   0.72271   0.72455   0.73078
 Alpha virt. eigenvalues --    0.73219   0.73407   0.74415   0.74754   0.74872
 Alpha virt. eigenvalues --    0.75367   0.75494   0.76714   0.76756   0.77450
 Alpha virt. eigenvalues --    0.78187   0.78269   0.78477   0.78973   0.79013
 Alpha virt. eigenvalues --    0.79266   0.79721   0.80057   0.80194   0.80624
 Alpha virt. eigenvalues --    0.80671   0.81632   0.82123   0.82527   0.82559
 Alpha virt. eigenvalues --    0.83088   0.83744   0.83780   0.84049   0.84588
 Alpha virt. eigenvalues --    0.85294   0.85309   0.85983   0.86204   0.86412
 Alpha virt. eigenvalues --    0.87276   0.87489   0.87788   0.89537   0.89561
 Alpha virt. eigenvalues --    0.89756   0.90846   0.90924   0.91434   0.92202
 Alpha virt. eigenvalues --    0.93287   0.93786   0.93857   0.95004   0.95256
 Alpha virt. eigenvalues --    0.95531   0.96046   0.96417   0.97088   0.97531
 Alpha virt. eigenvalues --    0.97771   0.98208   0.99045   0.99496   0.99524
 Alpha virt. eigenvalues --    0.99870   1.00191   1.01681   1.01810   1.02384
 Alpha virt. eigenvalues --    1.02477   1.03038   1.03262   1.03530   1.03784
 Alpha virt. eigenvalues --    1.04106   1.04214   1.04644   1.04653   1.05130
 Alpha virt. eigenvalues --    1.05601   1.05879   1.06306   1.06520   1.06822
 Alpha virt. eigenvalues --    1.07092   1.07825   1.08021   1.08166   1.08752
 Alpha virt. eigenvalues --    1.09416   1.09419   1.09547   1.09617   1.09930
 Alpha virt. eigenvalues --    1.10275   1.11397   1.11687   1.12115   1.12346
 Alpha virt. eigenvalues --    1.12805   1.13050   1.13592   1.13772   1.14355
 Alpha virt. eigenvalues --    1.14604   1.15065   1.15239   1.15607   1.15819
 Alpha virt. eigenvalues --    1.16585   1.16733   1.17497   1.18267   1.19458
 Alpha virt. eigenvalues --    1.19982   1.20180   1.22388   1.22414   1.23142
 Alpha virt. eigenvalues --    1.23355   1.24704   1.25229   1.26792   1.26809
 Alpha virt. eigenvalues --    1.27518   1.27817   1.28837   1.28843   1.30726
 Alpha virt. eigenvalues --    1.32127   1.32333   1.32523   1.33136   1.34130
 Alpha virt. eigenvalues --    1.34431   1.35788   1.36463   1.37132   1.37445
 Alpha virt. eigenvalues --    1.39262   1.39455   1.39969   1.39970   1.41427
 Alpha virt. eigenvalues --    1.41916   1.42452   1.42528   1.42622   1.44074
 Alpha virt. eigenvalues --    1.44565   1.44602   1.45014   1.45264   1.46249
 Alpha virt. eigenvalues --    1.46732   1.46742   1.47398   1.47434   1.48248
 Alpha virt. eigenvalues --    1.48371   1.48730   1.49089   1.49172   1.49315
 Alpha virt. eigenvalues --    1.49465   1.50143   1.50718   1.50763   1.50924
 Alpha virt. eigenvalues --    1.51072   1.51580   1.52445   1.52690   1.53157
 Alpha virt. eigenvalues --    1.53478   1.53670   1.53772   1.54586   1.55225
 Alpha virt. eigenvalues --    1.55809   1.55861   1.56237   1.56295   1.56957
 Alpha virt. eigenvalues --    1.57215   1.57840   1.58890   1.58980   1.60078
 Alpha virt. eigenvalues --    1.60110   1.60662   1.61747   1.61996   1.62081
 Alpha virt. eigenvalues --    1.62875   1.62965   1.63076   1.63096   1.65585
 Alpha virt. eigenvalues --    1.66017   1.66017   1.66166   1.67945   1.68280
 Alpha virt. eigenvalues --    1.68933   1.69464   1.70627   1.71073   1.71274
 Alpha virt. eigenvalues --    1.71708   1.72097   1.72182   1.72722   1.72959
 Alpha virt. eigenvalues --    1.73576   1.73641   1.74129   1.74392   1.74774
 Alpha virt. eigenvalues --    1.74887   1.75597   1.76776   1.76869   1.77540
 Alpha virt. eigenvalues --    1.78453   1.78730   1.78836   1.80069   1.80157
 Alpha virt. eigenvalues --    1.80543   1.80739   1.81772   1.81973   1.82208
 Alpha virt. eigenvalues --    1.82687   1.82913   1.83313   1.83494   1.84081
 Alpha virt. eigenvalues --    1.84863   1.84880   1.85080   1.85350   1.85806
 Alpha virt. eigenvalues --    1.86654   1.86815   1.87140   1.88069   1.88267
 Alpha virt. eigenvalues --    1.88285   1.88492   1.89034   1.89266   1.89316
 Alpha virt. eigenvalues --    1.89769   1.90154   1.90858   1.91099   1.91172
 Alpha virt. eigenvalues --    1.92118   1.92207   1.92829   1.93086   1.93216
 Alpha virt. eigenvalues --    1.93416   1.93581   1.93839   1.94573   1.94785
 Alpha virt. eigenvalues --    1.95020   1.95845   1.96021   1.96369   1.96688
 Alpha virt. eigenvalues --    1.96721   1.97396   1.97464   1.98196   1.98290
 Alpha virt. eigenvalues --    1.99601   2.00631   2.01081   2.02051   2.02397
 Alpha virt. eigenvalues --    2.02747   2.03061   2.03103   2.03376   2.04755
 Alpha virt. eigenvalues --    2.06660   2.07682   2.08166   2.08394   2.09367
 Alpha virt. eigenvalues --    2.10173   2.11349   2.11514   2.11690   2.12617
 Alpha virt. eigenvalues --    2.13192   2.13353   2.14087   2.14193   2.14976
 Alpha virt. eigenvalues --    2.16006   2.16552   2.17642   2.18063   2.18480
 Alpha virt. eigenvalues --    2.19477   2.20108   2.20780   2.22121   2.23350
 Alpha virt. eigenvalues --    2.23355   2.23768   2.23955   2.24110   2.24551
 Alpha virt. eigenvalues --    2.25446   2.26398   2.26512   2.26863   2.27401
 Alpha virt. eigenvalues --    2.27700   2.28546   2.28769   2.29065   2.29579
 Alpha virt. eigenvalues --    2.29801   2.30809   2.32158   2.33067   2.33795
 Alpha virt. eigenvalues --    2.34931   2.36213   2.36644   2.38001   2.38482
 Alpha virt. eigenvalues --    2.38991   2.40308   2.40564   2.41740   2.42508
 Alpha virt. eigenvalues --    2.43184   2.43585   2.44814   2.45028   2.45280
 Alpha virt. eigenvalues --    2.45453   2.46323   2.47439   2.47885   2.50068
 Alpha virt. eigenvalues --    2.52039   2.53171   2.53525   2.54070   2.54476
 Alpha virt. eigenvalues --    2.55374   2.56147   2.57302   2.57430   2.58092
 Alpha virt. eigenvalues --    2.58621   2.59162   2.59785   2.59941   2.60448
 Alpha virt. eigenvalues --    2.60917   2.60994   2.61257   2.61489   2.61721
 Alpha virt. eigenvalues --    2.62295   2.62801   2.63130   2.63413   2.63901
 Alpha virt. eigenvalues --    2.64106   2.64244   2.64939   2.65041   2.66086
 Alpha virt. eigenvalues --    2.66337   2.66908   2.66913   2.67047   2.67602
 Alpha virt. eigenvalues --    2.67730   2.67967   2.68126   2.68392   2.68572
 Alpha virt. eigenvalues --    2.69224   2.69496   2.69736   2.70476   2.70669
 Alpha virt. eigenvalues --    2.70826   2.71340   2.71666   2.71723   2.72386
 Alpha virt. eigenvalues --    2.72834   2.73565   2.73648   2.74129   2.74138
 Alpha virt. eigenvalues --    2.74569   2.75171   2.75534   2.75581   2.75685
 Alpha virt. eigenvalues --    2.77101   2.77167   2.77661   2.77840   2.78401
 Alpha virt. eigenvalues --    2.78773   2.78782   2.79849   2.79999   2.80333
 Alpha virt. eigenvalues --    2.80523   2.81588   2.82288   2.83126   2.83422
 Alpha virt. eigenvalues --    2.84539   2.84561   2.84995   2.85320   2.86309
 Alpha virt. eigenvalues --    2.86492   2.88168   2.88385   2.89308   2.89603
 Alpha virt. eigenvalues --    2.90345   2.90438   2.90935   2.92586   2.93030
 Alpha virt. eigenvalues --    2.93102   2.94487   2.94874   2.95425   2.95549
 Alpha virt. eigenvalues --    2.97415   2.98290   2.98433   2.99515   2.99844
 Alpha virt. eigenvalues --    3.00190   3.00509   3.01549   3.03163   3.04011
 Alpha virt. eigenvalues --    3.06492   3.06528   3.08529   3.09968   3.10217
 Alpha virt. eigenvalues --    3.10768   3.11216   3.16030   3.16115   3.17277
 Alpha virt. eigenvalues --    3.17945   3.18292   3.18741   3.19329   3.21505
 Alpha virt. eigenvalues --    3.21806   3.22949   3.24592   3.25973   3.30728
 Alpha virt. eigenvalues --    3.31074   3.31421   3.31589   3.32317   3.33775
 Alpha virt. eigenvalues --    3.35226   3.36974   3.37091   3.37397   3.37771
 Alpha virt. eigenvalues --    3.38161   3.38194   3.39862   3.40509   3.40547
 Alpha virt. eigenvalues --    3.41829   3.42047   3.43218   3.44542   3.45445
 Alpha virt. eigenvalues --    3.45627   3.46578   3.47371   3.49893   3.50051
 Alpha virt. eigenvalues --    3.50860   3.52236   3.52885   3.53140   3.53832
 Alpha virt. eigenvalues --    3.56542   3.57761   3.58974   3.59572   3.61852
 Alpha virt. eigenvalues --    3.62296   3.62944   3.64187   3.64288   3.65955
 Alpha virt. eigenvalues --    3.66083   3.67153   3.68034   3.69183   3.69717
 Alpha virt. eigenvalues --    3.70760   3.72582   3.74316   3.75896   4.00309
 Alpha virt. eigenvalues --    4.00321   4.01239   4.01581   4.02553   4.02630
 Alpha virt. eigenvalues --    4.03407   4.03693   4.15743   4.16204   4.17342
 Alpha virt. eigenvalues --    4.20194   4.20612   4.20742   4.21039   4.21832
 Alpha virt. eigenvalues --    4.21970   4.24232   4.24392   4.26568   4.28145
 Alpha virt. eigenvalues --    4.30738   4.38529   4.41932   4.62349   4.65420
 Alpha virt. eigenvalues --    4.78263   4.79005   4.79761   4.81459   4.81713
 Alpha virt. eigenvalues --    4.82162   4.82532   4.83707   4.85930   4.86039
 Alpha virt. eigenvalues --   23.41493  23.47327  23.56047  23.63611  23.70259
 Alpha virt. eigenvalues --   23.76860  23.78515  23.80457  23.81306  23.82049
 Alpha virt. eigenvalues --   23.83658  23.86204  23.87095  23.88639  23.89000
 Alpha virt. eigenvalues --   23.90197  23.91500  23.92166  23.93000  23.96654
 Alpha virt. eigenvalues --   23.96712  23.98995  23.99314  24.01049  24.08918
 Alpha virt. eigenvalues --   24.09439  24.10244  24.10947  24.11395  24.11549
 Alpha virt. eigenvalues --   24.12024  24.12974  24.13527  24.14361  24.15159
 Alpha virt. eigenvalues --   24.15192  24.15479  24.16086  24.17039  24.17069
 Alpha virt. eigenvalues --   24.19687  24.19729  24.21909  24.21980
          Condensed to atoms (all electrons):
 Mulliken charges:
               1
     1  C   -0.050323
     2  C   -0.085679
     3  C   -0.044565
     4  C   -0.078281
     5  C   -0.088227
     6  C   -0.095578
     7  C    0.005554
     8  C   -0.048832
     9  C   -0.038327
    10  C   -0.076685
    11  H    0.085825
    12  H    0.078511
    13  H    0.076691
    14  H    0.085326
    15  H    0.099062
    16  H    0.098500
    17  C    0.000846
    18  C   -0.048832
    19  C   -0.042995
    20  C   -0.076685
    21  H    0.077243
    22  H    0.075453
    23  C    0.005554
    24  C   -0.050323
    25  C   -0.038327
    26  C   -0.085679
    27  H    0.078511
    28  H    0.076691
    29  C   -0.044565
    30  C   -0.088227
    31  C   -0.078281
    32  C   -0.095578
    33  H    0.085825
    34  H    0.098500
    35  H    0.099062
    36  H    0.085326
    37  C   -0.007576
    38  C   -0.149182
    39  C   -0.065588
    40  C   -0.018410
    41  C   -0.084832
    42  C   -0.135133
    43  C   -0.034598
    44  C    0.005295
    45  C    0.022527
    46  C   -0.158264
    47  H    0.077224
    48  H    0.068582
    49  H    0.120658
    50  H    0.128091
    51  H    0.080903
    52  H    0.089478
    53  C   -0.038582
    54  C    0.005295
    55  C    0.018322
    56  C   -0.158264
    57  H    0.067197
    58  H    0.118214
    59  C   -0.034598
    60  C   -0.007576
    61  C    0.022527
    62  C   -0.149182
    63  H    0.068582
    64  H    0.120658
    65  C   -0.065588
    66  C   -0.084832
    67  C   -0.018410
    68  C   -0.135133
    69  H    0.077224
    70  H    0.089478
    71  H    0.080903
    72  H    0.128091
 Sum of Mulliken charges =   0.00000
 Mulliken charges with hydrogens summed into heavy atoms:
               1
     1  C   -0.050323
     2  C   -0.085679
     3  C    0.041260
     4  C    0.007044
     5  C    0.010273
     6  C    0.003485
     7  C    0.084065
     8  C   -0.048832
     9  C    0.038364
    10  C   -0.076685
    17  C    0.078090
    18  C   -0.048832
    19  C    0.032459
    20  C   -0.076685
    23  C    0.084065
    24  C   -0.050323
    25  C    0.038364
    26  C   -0.085679
    29  C    0.041260
    30  C    0.010273
    31  C    0.007044
    32  C    0.003485
    37  C   -0.007576
    38  C   -0.149182
    39  C    0.011636
    40  C    0.109681
    41  C    0.004645
    42  C   -0.054230
    43  C    0.033984
    44  C    0.005295
    45  C    0.143186
    46  C   -0.158264
    53  C    0.028615
    54  C    0.005295
    55  C    0.136537
    56  C   -0.158264
    59  C    0.033984
    60  C   -0.007576
    61  C    0.143186
    62  C   -0.149182
    65  C    0.011636
    66  C    0.004645
    67  C    0.109681
    68  C   -0.054230
         Mulliken charges condensed to fragments:
      1     -0.043505
      2      0.043505
 Electronic spatial extent (au):  <R**2>=          24611.3728
 Charge=              0.0000 electrons
 Dipole moment (field-independent basis, Debye):
    X=              0.4177    Y=             -2.1389    Z=              0.0000  Tot=              2.1793
 Quadrupole moment (field-independent basis, Debye-Ang):
   XX=           -245.0227   YY=           -250.5626   ZZ=           -220.6071
   XY=             -0.2600   XZ=              0.0000   YZ=              0.0000
 Traceless Quadrupole moment (field-independent basis, Debye-Ang):
   XX=             -6.2919   YY=            -11.8318   ZZ=             18.1237
   XY=             -0.2600   XZ=              0.0000   YZ=              0.0000
 Octapole moment (field-independent basis, Debye-Ang**2):
  XXX=             22.9614  YYY=            153.4701  ZZZ=              0.0000  XYY=             -3.3678
  XXY=            -67.9092  XXZ=              0.0000  XZZ=              7.6485  YZZ=            -46.0786
  YYZ=              0.0000  XYZ=              0.0000
 Hexadecapole moment (field-independent basis, Debye-Ang**3):
 XXXX=          -1356.1452 YYYY=          -9799.9109 ZZZZ=         -21095.8139 XXXY=            465.0185
 XXXZ=              0.0000 YYYX=            470.4784 YYYZ=              0.0000 ZZZX=              0.0000
 ZZZY=              0.0000 XXYY=          -1928.6881 XXZZ=          -4165.1050 YYZZ=          -5475.5636
 XXYZ=              0.0000 YYXZ=              0.0000 ZZXY=            136.2400
 N-N= 4.744228909459D+03 E-N=-1.341912595026D+04  KE= 1.686782727627D+03
 Symmetry A'   KE= 9.134877936931D+02
 Symmetry A"   KE= 7.732949339343D+02
 No NMR shielding tensors so no spin-rotation constants.
 Leave Link  601 at Wed Sep 27 16:59:08 2023, MaxMem=  3221225472 cpu:              55.5 elap:               1.5
 (Enter /home/center/opt/aarch64/apps/gaussian16/c01/g16/l122.exe)
 CPIOFr:  IOpCl= 0 IRwI=-1 IRwCP=  731 ICalc= -1 LCPTot=     1419224 Len1MO=     3708034 IndFrg=     1419224
 CPIOFr:  IOpCl= 0 IRwI=-1 IRwCP=  731 ICalc=  0 LCPTot=     1419224 Len1MO=     3708034 IndFrg=     5127258
 Counterpoise: doing calculation for fragment   1 using the basis set of the full-system, NewBq=T
 Leave Link  122 at Wed Sep 27 16:59:11 2023, MaxMem=  3221225472 cpu:               8.3 elap:               0.4
 (Enter /home/center/opt/aarch64/apps/gaussian16/c01/g16/l301.exe)
 Basis read from rwf:  (5D, 7F)
 No pseudopotential information found on rwf file.
 There are   528 symmetry adapted cartesian basis functions of A'  symmetry.
 There are   476 symmetry adapted cartesian basis functions of A"  symmetry.
 There are   504 symmetry adapted basis functions of A'  symmetry.
 There are   456 symmetry adapted basis functions of A"  symmetry.
   960 basis functions,  1632 primitive gaussians,  1004 cartesian basis functions
    73 alpha electrons       73 beta electrons
       nuclear repulsion energy      1494.3575060130 Hartrees.
 IExCor=  402 DFT=T Ex+Corr=B3LYP ExCW=0 ScaHFX=  0.200000
 ScaDFX=  0.800000  0.720000  1.000000  0.810000 ScalE2=  1.000000  1.000000
 IRadAn=      5 IRanWt=     -1 IRanGd=            0 ICorTp=0 IEmpDi=131
 NAtoms=   72 NActive=   72 NUniq=   40 SFac= 3.24D+00 NAtFMM=   60 NAOKFM=T Big=F
 Integral buffers will be    131072 words long.
 Raffenetti 2 integral format.
 Two-electron integral symmetry is turned on.
 R6Disp:  Grimme-D3 Dispersion energy=       -0.0303938888 Hartrees.
 Nuclear repulsion after empirical dispersion term =     1494.3271121242 Hartrees.
 No density basis found on file    718.
 Leave Link  301 at Wed Sep 27 16:59:13 2023, MaxMem=  3221225472 cpu:               1.0 elap:               0.1
 (Enter /home/center/opt/aarch64/apps/gaussian16/c01/g16/l302.exe)
 NPDir=0 NMtPBC=     1 NCelOv=     1 NCel=       1 NClECP=     1 NCelD=      1
         NCelK=      1 NCelE2=     1 NClLst=     1 CellRange=     0.0.
 One-electron integrals computed using PRISM.
 One-electron integral symmetry used in STVInt
 NBasis=   960 RedAO= T EigKep=  3.67D-05  NBF=   504   456
 NBsUse=   960 1.00D-06 EigRej= -1.00D+00 NBFU=   504   456
 Precomputing XC quadrature grid using
 IXCGrd= 4 IRadAn=           5 IRanWt=          -1 IRanGd=           0 AccXCQ= 0.00D+00.
 Generated NRdTot=       0 NPtTot=           0 NUsed=           0 NTot=          32
 NSgBfM=   991   991   991   991   991 MxSgAt=    72 MxSgA2=    72.
 Leave Link  302 at Wed Sep 27 16:59:17 2023, MaxMem=  3221225472 cpu:              59.7 elap:               1.7
 (Enter /home/center/opt/aarch64/apps/gaussian16/c01/g16/l303.exe)
 DipDrv:  MaxL=1.
 Leave Link  303 at Wed Sep 27 16:59:20 2023, MaxMem=  3221225472 cpu:              14.0 elap:               0.5
 (Enter /home/center/opt/aarch64/apps/gaussian16/c01/g16/l401.exe)
 ExpMin= 1.03D-01 ExpMax= 4.56D+03 ExpMxC= 6.82D+02 IAcc=3 IRadAn=         5 AccDes= 0.00D+00
 Harris functional with IExCor=  402 and IRadAn=       5 diagonalized for initial guess.
 HarFok:  IExCor=  402 AccDes= 0.00D+00 IRadAn=         5 IDoV= 1 UseB2=F ITyADJ=14
 ICtDFT=  3500011 ScaDFX=  1.000000  1.000000  1.000000  1.000000
 FoFCou: FMM=F IPFlag=           0 FMFlag=      100000 FMFlg1=        2000
         NFxFlg=           0 DoJE=T BraDBF=F KetDBF=T FulRan=T
         wScrn=  0.000000 ICntrl=       500 IOpCl=  0 I1Cent=   200000004 NGrid=           0
         NMat0=    1 NMatS0=      1 NMatT0=    0 NMatD0=    1 NMtDS0=    0 NMtDT0=    0
 Petite list used in FoFCou.
 Harris En= -847.067834645121    
 JPrj=0 DoOrth=F DoCkMO=F.
 Initial guess orbital symmetries:
       Occupied  (A") (A') (A') (A") (A") (A') (A") (A') (A") (A')
                 (A") (A') (A') (A') (A") (A') (A") (A') (A") (A')
                 (A') (A") (A') (A") (A') (A") (A') (A') (A") (A')
                 (A") (A") (A') (A') (A") (A") (A') (A") (A') (A')
                 (A') (A") (A") (A") (A') (A') (A") (A') (A') (A")
                 (A') (A") (A") (A') (A') (A") (A') (A") (A') (A")
                 (A") (A') (A') (A") (A') (A") (A') (A") (A') (A')
                 (A") (A") (A')
       Virtual   (A') (A") (A") (A') (A') (A") (A') (A") (A') (A")
                 (A') (A') (A") (A') (A") (A') (A') (A") (A') (A")
                 (A") (A") (A') (A') (A') (A") (A') (A') (A") (A')
                 (A') (A") (A") (A') (A') (A") (A') (A") (A") (A')
                 (A') (A") (A") (A') (A") (A') (A") (A') (A") (A')
                 (A') (A") (A') (A') (A") (A') (A") (A") (A') (A')
                 (A') (A") (A') (A') (A") (A") (A") (A") (A') (A')
                 (A") (A') (A") (A') (A') (A') (A') (A") (A") (A')
                 (A') (A") (A") (A") (A') (A") (A') (A') (A") (A')
                 (A") (A") (A") (A') (A') (A') (A') (A') (A') (A")
                 (A") (A') (A") (A') (A") (A") (A') (A") (A') (A')
                 (A") (A') (A") (A') (A") (A') (A") (A") (A') (A")
                 (A') (A") (A') (A") (A') (A') (A') (A") (A") (A')
                 (A') (A') (A") (A") (A') (A') (A") (A') (A") (A')
                 (A') (A") (A') (A") (A") (A') (A") (A") (A') (A")
                 (A') (A') (A') (A") (A") (A') (A") (A') (A") (A")
                 (A') (A') (A') (A') (A") (A") (A') (A") (A') (A")
                 (A') (A") (A') (A") (A') (A') (A") (A") (A') (A")
                 (A') (A") (A') (A") (A") (A') (A') (A') (A") (A")
                 (A') (A') (A') (A') (A") (A') (A") (A") (A') (A")
                 (A') (A') (A") (A") (A') (A") (A") (A") (A') (A')
                 (A") (A") (A') (A') (A") (A') (A') (A") (A') (A")
                 (A') (A") (A") (A') (A') (A") (A') (A") (A') (A')
                 (A") (A') (A") (A") (A') (A") (A') (A") (A') (A')
                 (A') (A") (A') (A") (A') (A") (A") (A") (A') (A")
                 (A') (A') (A") (A') (A') (A") (A") (A') (A") (A')
                 (A") (A') (A') (A') (A") (A') (A") (A") (A") (A')
                 (A') (A") (A') (A") (A') (A") (A") (A') (A') (A')
                 (A") (A") (A') (A") (A") (A') (A') (A") (A') (A')
                 (A') (A") (A') (A") (A') (A") (A") (A') (A") (A')
                 (A') (A") (A') (A') (A') (A") (A") (A") (A") (A')
                 (A') (A') (A") (A") (A') (A') (A") (A") (A') (A")
                 (A') (A") (A') (A") (A') (A") (A') (A") (A') (A')
                 (A') (A') (A") (A') (A') (A") (A") (A') (A") (A")
                 (A') (A") (A') (A") (A") (A') (A') (A") (A') (A')
                 (A") (A") (A') (A') (A') (A") (A') (A") (A') (A")
                 (A') (A') (A") (A') (A') (A") (A') (A") (A") (A')
                 (A") (A") (A") (A") (A') (A") (A') (A') (A") (A')
                 (A") (A') (A") (A') (A') (A") (A') (A') (A") (A")
                 (A") (A') (A') (A") (A') (A") (A') (A') (A") (A')
                 (A") (A') (A") (A") (A') (A") (A") (A') (A') (A")
                 (A") (A') (A') (A') (A") (A') (A") (A') (A') (A")
                 (A") (A') (A") (A") (A") (A') (A") (A") (A') (A')
                 (A") (A') (A') (A') (A') (A") (A") (A') (A') (A")
                 (A') (A") (A") (A') (A') (A') (A") (A") (A") (A')
                 (A') (A") (A') (A") (A") (A") (A') (A') (A") (A')
                 (A") (A') (A') (A") (A") (A') (A') (A") (A') (A")
                 (A') (A') (A") (A") (A") (A') (A") (A') (A') (A")
                 (A") (A') (A") (A') (A') (A") (A') (A") (A") (A')
                 (A") (A') (A") (A') (A') (A') (A") (A") (A') (A")
                 (A') (A") (A') (A') (A") (A") (A") (A') (A') (A')
                 (A") (A") (A") (A') (A') (A') (A') (A") (A") (A")
                 (A') (A") (A') (A') (A") (A') (A") (A') (A") (A")
                 (A') (A') (A') (A") (A") (A") (A') (A') (A') (A")
                 (A') (A") (A') (A") (A') (A') (A") (A') (A") (A')
                 (A") (A') (A") (A') (A') (A") (A") (A') (A") (A')
                 (A") (A') (A") (A') (A') (A") (A") (A') (A") (A')
                 (A') (A") (A') (A") (A') (A') (A') (A") (A") (A')
                 (A") (A') (A") (A") (A') (A") (A") (A') (A") (A')
                 (A') (A') (A') (A') (A") (A") (A") (A') (A") (A')
                 (A") (A') (A") (A") (A') (A") (A') (A') (A") (A')
                 (A") (A') (A') (A") (A') (A") (A') (A") (A') (A")
                 (A') (A') (A") (A") (A') (A") (A') (A") (A') (A")
                 (A") (A") (A') (A") (A") (A') (A') (A') (A') (A')
                 (A") (A") (A") (A') (A') (A") (A') (A") (A") (A')
                 (A") (A') (A') (A") (A') (A") (A") (A') (A") (A')
                 (A") (A') (A") (A") (A') (A") (A') (A') (A") (A')
                 (A') (A") (A") (A') (A') (A") (A') (A") (A') (A')
                 (A") (A') (A') (A") (A') (A") (A') (A') (A") (A")
                 (A') (A") (A') (A') (A") (A") (A") (A') (A') (A')
                 (A") (A") (A') (A") (A') (A") (A') (A') (A") (A')
[...]
                 (A") (A") (A')
       Virtual   (A') (A") (A") (A') (A') (A") (A') (A') (A') (A")
                 (A") (A') (A") (A') (A") (A') (A") (A") (A') (A")
                 (A') (A') (A") (A') (A") (A') (A') (A') (A') (A")
                 (A") (A") (A") (A') (A') (A") (A') (A") (A') (A")
                 (A') (A') (A') (A") (A') (A") (A") (A') (A') (A")
                 (A") (A') (A') (A") (A') (A") (A") (A") (A') (A")
                 (A') (A') (A') (A') (A') (A") (A') (A') (A") (A")
                 (A") (A') (A') (A') (A") (A') (A") (A") (A") (A')
                 (A') (A") (A') (A") (A") (A') (A") (A') (A') (A')
                 (A') (A') (A") (A") (A") (A") (A') (A") (A') (A")
                 (A') (A') (A') (A") (A") (A') (A') (A") (A') (A")
                 (A') (A") (A") (A") (A') (A') (A") (A') (A') (A")
                 (A') (A") (A") (A') (A') (A") (A') (A") (A') (A")
                 (A") (A') (A') (A') (A') (A") (A") (A") (A') (A")
                 (A') (A") (A') (A") (A') (A') (A") (A") (A') (A")
                 (A') (A") (A') (A") (A') (A') (A") (A') (A") (A")
                 (A') (A") (A') (A') (A") (A") (A') (A") (A') (A")
                 (A') (A') (A") (A') (A') (A") (A") (A') (A') (A')
                 (A") (A') (A") (A") (A") (A") (A') (A") (A') (A')
                 (A") (A') (A") (A') (A') (A') (A") (A') (A") (A')
                 (A") (A") (A') (A') (A") (A") (A') (A') (A") (A')
                 (A') (A') (A') (A") (A") (A") (A") (A') (A') (A")
                 (A') (A") (A") (A') (A") (A') (A") (A') (A") (A')
                 (A") (A') (A') (A") (A') (A") (A") (A') (A') (A")
                 (A") (A') (A') (A") (A") (A') (A") (A") (A") (A')
                 (A') (A") (A') (A') (A") (A') (A') (A") (A') (A")
                 (A") (A') (A") (A') (A') (A") (A") (A") (A') (A')
                 (A") (A') (A') (A") (A") (A") (A') (A") (A') (A')
                 (A") (A') (A") (A') (A") (A') (A') (A') (A") (A')
                 (A") (A") (A') (A') (A") (A") (A') (A") (A') (A")
                 (A') (A') (A") (A") (A') (A') (A") (A') (A') (A')
                 (A") (A") (A') (A") (A') (A") (A') (A") (A') (A')
                 (A') (A") (A") (A") (A') (A") (A') (A') (A') (A")
                 (A") (A') (A") (A') (A') (A") (A') (A") (A") (A')
                 (A') (A") (A') (A") (A") (A') (A') (A") (A') (A")
                 (A') (A") (A') (A") (A') (A") (A") (A') (A') (A")
                 (A') (A") (A') (A') (A") (A") (A') (A") (A') (A')
                 (A") (A') (A") (A') (A') (A") (A') (A") (A') (A")
                 (A") (A') (A") (A') (A") (A') (A") (A') (A') (A")
                 (A") (A') (A") (A') (A') (A") (A") (A') (A') (A")
                 (A') (A") (A') (A") (A') (A') (A")
 The electronic state is 1-A'.
 Alpha  occ. eigenvalues --  -10.18931 -10.18930 -10.18896 -10.18895 -10.18848
 Alpha  occ. eigenvalues --  -10.18848 -10.18813 -10.18813 -10.17956 -10.17955
 Alpha  occ. eigenvalues --  -10.17920 -10.17920 -10.17919 -10.17919 -10.17875
 Alpha  occ. eigenvalues --  -10.17875 -10.17863 -10.17863 -10.17808 -10.17808
 Alpha  occ. eigenvalues --  -10.17781 -10.17781  -0.89340  -0.87865  -0.85549
 Alpha  occ. eigenvalues --   -0.82415  -0.79820  -0.78521  -0.78314  -0.75991
 Alpha  occ. eigenvalues --   -0.74255  -0.72901  -0.69196  -0.67344  -0.62728
 Alpha  occ. eigenvalues --   -0.62370  -0.61108  -0.59964  -0.59301  -0.57689
 Alpha  occ. eigenvalues --   -0.52709  -0.52573  -0.52293  -0.49654  -0.48513
 Alpha  occ. eigenvalues --   -0.47160  -0.46110  -0.45590  -0.45476  -0.43928
 Alpha  occ. eigenvalues --   -0.43182  -0.42578  -0.41808  -0.41572  -0.41386
 Alpha  occ. eigenvalues --   -0.40692  -0.40405  -0.39579  -0.38193  -0.36732
 Alpha  occ. eigenvalues --   -0.36341  -0.35550  -0.34094  -0.33809  -0.33058
 Alpha  occ. eigenvalues --   -0.32930  -0.31612  -0.29665  -0.28406  -0.26623
 Alpha  occ. eigenvalues --   -0.24364  -0.22582  -0.17855
 Alpha virt. eigenvalues --   -0.09755  -0.04464  -0.02747  -0.00147   0.02073
 Alpha virt. eigenvalues --    0.02370   0.03189   0.04746   0.04859   0.04871
 Alpha virt. eigenvalues --    0.06161   0.06575   0.07968   0.08162   0.08303
 Alpha virt. eigenvalues --    0.09607   0.10049   0.11524   0.11533   0.13796
 Alpha virt. eigenvalues --    0.14111   0.14670   0.18092   0.18194   0.18832
 Alpha virt. eigenvalues --    0.19391   0.22815   0.23002   0.24379   0.24942
 Alpha virt. eigenvalues --    0.25581   0.27528   0.27575   0.28012   0.28228
 Alpha virt. eigenvalues --    0.28947   0.29389   0.30158   0.30759   0.31175
 Alpha virt. eigenvalues --    0.32897   0.34528   0.36420   0.36484   0.37134
 Alpha virt. eigenvalues --    0.37503   0.37629   0.37651   0.38116   0.38643
 Alpha virt. eigenvalues --    0.39094   0.39439   0.39739   0.40236   0.40435
 Alpha virt. eigenvalues --    0.41918   0.41926   0.41940   0.42289   0.42318
 Alpha virt. eigenvalues --    0.42643   0.43748   0.44233   0.44835   0.45295
 Alpha virt. eigenvalues --    0.45683   0.45924   0.45953   0.46379   0.47165
 Alpha virt. eigenvalues --    0.47805   0.47809   0.47978   0.48073   0.48231
 Alpha virt. eigenvalues --    0.48568   0.49414   0.49572   0.51377   0.51846
 Alpha virt. eigenvalues --    0.52370   0.53118   0.53671   0.55998   0.57923
 Alpha virt. eigenvalues --    0.57955   0.59048   0.59201   0.60433   0.60585
 Alpha virt. eigenvalues --    0.60693   0.61101   0.61690   0.62105   0.62173
 Alpha virt. eigenvalues --    0.63432   0.63481   0.64458   0.64535   0.65533
 Alpha virt. eigenvalues --    0.66693   0.66910   0.67680   0.67724   0.70658
 Alpha virt. eigenvalues --    0.71305   0.71405   0.71494   0.72803   0.73989
 Alpha virt. eigenvalues --    0.75405   0.75894   0.76289   0.77801   0.77809
 Alpha virt. eigenvalues --    0.78943   0.79160   0.79723   0.81162   0.81509
 Alpha virt. eigenvalues --    0.82881   0.83001   0.84383   0.84585   0.84713
 Alpha virt. eigenvalues --    0.88087   0.89711   0.89765   0.91536   0.92083
 Alpha virt. eigenvalues --    0.92578   0.93749   0.95806   0.96107   0.96442
 Alpha virt. eigenvalues --    0.96590   0.96905   0.98547   1.00356   1.01118
 Alpha virt. eigenvalues --    1.02686   1.03027   1.03354   1.04405   1.05244
 Alpha virt. eigenvalues --    1.05439   1.05525   1.05950   1.07395   1.07547
 Alpha virt. eigenvalues --    1.07686   1.08438   1.10005   1.10036   1.12070
 Alpha virt. eigenvalues --    1.13223   1.13544   1.13650   1.14526   1.15341
 Alpha virt. eigenvalues --    1.17432   1.18332   1.19657   1.20432   1.23014
 Alpha virt. eigenvalues --    1.23618   1.27884   1.28234   1.30579   1.32076
 Alpha virt. eigenvalues --    1.32743   1.34942   1.37641   1.39236   1.39896
 Alpha virt. eigenvalues --    1.39942   1.40725   1.42751   1.43476   1.43554
 Alpha virt. eigenvalues --    1.45057   1.46086   1.47119   1.47538   1.48841
 Alpha virt. eigenvalues --    1.49280   1.49417   1.50258   1.50674   1.52268
 Alpha virt. eigenvalues --    1.52650   1.53402   1.54331   1.54372   1.54781
 Alpha virt. eigenvalues --    1.54807   1.57107   1.57715   1.58569   1.59882
 Alpha virt. eigenvalues --    1.60106   1.62692   1.63242   1.64856   1.66641
 Alpha virt. eigenvalues --    1.69292   1.69605   1.69709   1.70649   1.71804
 Alpha virt. eigenvalues --    1.72459   1.72619   1.73075   1.73096   1.73680
 Alpha virt. eigenvalues --    1.77494   1.78519   1.79157   1.79419   1.80511
 Alpha virt. eigenvalues --    1.81616   1.81887   1.82058   1.83581   1.84039
 Alpha virt. eigenvalues --    1.85487   1.87392   1.87456   1.87577   1.87728
 Alpha virt. eigenvalues --    1.88131   1.88613   1.90743   1.91387   1.92190
 Alpha virt. eigenvalues --    1.92193   1.92572   1.92670   1.93517   1.93938
 Alpha virt. eigenvalues --    1.94544   1.95483   1.97262   1.99429   2.00088
 Alpha virt. eigenvalues --    2.00602   2.01362   2.03019   2.05757   2.08293
 Alpha virt. eigenvalues --    2.09111   2.09256   2.09792   2.12192   2.14098
 Alpha virt. eigenvalues --    2.15528   2.15584   2.17200   2.19751   2.20833
 Alpha virt. eigenvalues --    2.21576   2.22525   2.23381   2.24503   2.26441
 Alpha virt. eigenvalues --    2.26972   2.27242   2.27719   2.28046   2.29391
 Alpha virt. eigenvalues --    2.33301   2.35725   2.39155   2.39384   2.40817
 Alpha virt. eigenvalues --    2.42649   2.43076   2.45776   2.45994   2.46870
 Alpha virt. eigenvalues --    2.51623   2.51954   2.53354   2.53485   2.55138
 Alpha virt. eigenvalues --    2.56159   2.58701   2.58838   2.59764   2.59776
 Alpha virt. eigenvalues --    2.60682   2.61147   2.61719   2.62222   2.63349
 Alpha virt. eigenvalues --    2.63999   2.64478   2.66054   2.66794   2.67121
 Alpha virt. eigenvalues --    2.67374   2.68356   2.68872   2.68876   2.69372
 Alpha virt. eigenvalues --    2.69557   2.69907   2.70083   2.70281   2.73482
 Alpha virt. eigenvalues --    2.74771   2.74836   2.76066   2.77101   2.77577
 Alpha virt. eigenvalues --    2.78232   2.78455   2.78850   2.80822   2.82359
 Alpha virt. eigenvalues --    2.85535   2.85993   2.86737   2.87294   2.90966
 Alpha virt. eigenvalues --    2.91783   2.92195   2.93676   2.95232   2.95887
 Alpha virt. eigenvalues --    2.99270   2.99858   3.03165   3.05604   3.06852
 Alpha virt. eigenvalues --    3.07371   3.15988   3.16029   3.16647   3.19843
 Alpha virt. eigenvalues --    3.20017   3.23601   3.29134   3.29680   3.31610
 Alpha virt. eigenvalues --    3.35095   3.35458   3.35677   3.35858   3.38023
 Alpha virt. eigenvalues --    3.39887   3.41413   3.44960   3.45362   3.47993
 Alpha virt. eigenvalues --    3.48278   3.50401   3.53073   3.57439   3.58649
 Alpha virt. eigenvalues --    3.61466   3.62620   3.63208   3.63698   3.65910
 Alpha virt. eigenvalues --    3.67534   3.67678   4.00384   4.00442   4.01859
 Alpha virt. eigenvalues --    4.02182   4.16133   4.16678   4.17360   4.21240
 Alpha virt. eigenvalues --    4.22396   4.22517   4.25488   4.38492   4.62290
 Alpha virt. eigenvalues --    4.79179   4.79740   4.80562   4.82562   4.83014
 Alpha virt. eigenvalues --   23.39176  23.54541  23.69085  23.77378  23.80419
 Alpha virt. eigenvalues --   23.81537  23.86099  23.89067  23.89154  23.92210
 Alpha virt. eigenvalues --   23.97563  23.98365  24.09049  24.09932  24.10529
 Alpha virt. eigenvalues --   24.12220  24.13779  24.14375  24.15775  24.15810
 Alpha virt. eigenvalues --   24.20452  24.20497
          Condensed to atoms (all electrons):
 Mulliken charges:
               1
     1  C    0.000000
     2  C    0.000000
     3  C    0.000000
     4  C    0.000000
     5  C    0.000000
     6  C    0.000000
     7  C    0.000000
     8  C    0.000000
     9  C    0.000000
    10  C    0.000000
    11  H    0.000000
    12  H    0.000000
    13  H    0.000000
    14  H    0.000000
    15  H    0.000000
    16  H    0.000000
    17  C    0.000000
    18  C    0.000000
    19  C    0.000000
    20  C    0.000000
    21  H    0.000000
    22  H    0.000000
    23  C    0.000000
    24  C    0.000000
    25  C    0.000000
    26  C    0.000000
    27  H    0.000000
    28  H    0.000000
    29  C    0.000000
    30  C    0.000000
    31  C    0.000000
    32  C    0.000000
    33  H    0.000000
    34  H    0.000000
    35  H    0.000000
    36  H    0.000000
    37  C   -0.059168
    38  C   -0.059168
    39  C   -0.055977
    40  C   -0.055977
    41  C   -0.092198
    42  C   -0.092198
    43  C   -0.016525
    44  C   -0.054498
    45  C   -0.016525
    46  C   -0.054498
    47  H    0.082122
    48  H    0.074853
    49  H    0.074853
    50  H    0.082122
    51  H    0.094847
    52  H    0.094847
    53  C   -0.020341
    54  C   -0.054498
    55  C   -0.020341
    56  C   -0.054498
    57  H    0.073428
    58  H    0.073428
    59  C   -0.016525
    60  C   -0.059168
    61  C   -0.016525
    62  C   -0.059168
    63  H    0.074853
    64  H    0.074853
    65  C   -0.055977
    66  C   -0.092198
    67  C   -0.055977
    68  C   -0.092198
    69  H    0.082122
    70  H    0.094847
    71  H    0.094847
    72  H    0.082122
 Sum of Mulliken charges =   0.00000
 Mulliken charges with hydrogens summed into heavy atoms:
               1
     1  C    0.000000
     2  C    0.000000
     3  C    0.000000
     4  C    0.000000
     5  C    0.000000
     6  C    0.000000
     7  C    0.000000
     8  C    0.000000
     9  C    0.000000
    10  C    0.000000
    17  C    0.000000
    18  C    0.000000
    19  C    0.000000
    20  C    0.000000
    23  C    0.000000
    24  C    0.000000
    25  C    0.000000
    26  C    0.000000
    29  C    0.000000
    30  C    0.000000
    31  C    0.000000
    32  C    0.000000
    37  C   -0.059168
    38  C   -0.059168
    39  C    0.026144
    40  C    0.026144
    41  C    0.002649
    42  C    0.002649
    43  C    0.058328
    44  C   -0.054498
    45  C    0.058328
    46  C   -0.054498
    53  C    0.053087
    54  C   -0.054498
    55  C    0.053087
    56  C   -0.054498
    59  C    0.058328
    60  C   -0.059168
    61  C    0.058328
    62  C   -0.059168
    65  C    0.026144
    66  C    0.002649
    67  C    0.026144
    68  C    0.002649
         Mulliken charges condensed to fragments:
      1      0.000000
      2      0.000000
 Electronic spatial extent (au):  <R**2>=          16630.0278
 Charge=              0.0000 electrons
 Dipole moment (field-independent basis, Debye):
    X=              0.0000    Y=              0.0000    Z=              0.0000  Tot=              0.0000
 Quadrupole moment (field-independent basis, Debye-Ang):
   XX=           -136.3921   YY=           -110.7480   ZZ=           -109.0115
   XY=              0.0000   XZ=              0.0000   YZ=              0.0000
 Traceless Quadrupole moment (field-independent basis, Debye-Ang):
   XX=            -17.6749   YY=              7.9692   ZZ=              9.7057
   XY=              0.0000   XZ=              0.0000   YZ=              0.0000
 Octapole moment (field-independent basis, Debye-Ang**2):
  XXX=           1084.9922  YYY=            880.9952  ZZZ=              0.0000  XYY=            293.6651
  XXY=            361.6641  XXZ=              0.0000  XZZ=            289.0603  YZZ=            289.0603
  YYZ=              0.0000  XYZ=              0.0000
 Hexadecapole moment (field-independent basis, Debye-Ang**3):
 XXXX=          -5908.4439 YYYY=          -5788.8994 ZZZZ=         -10461.4324 XXXY=          -2877.0200
 XXXZ=              0.0000 YYYX=          -2336.0913 YYYZ=              0.0000 ZZZX=              0.0000
 ZZZY=              0.0000 XXYY=          -1994.1191 XXZZ=          -2974.4189 YYZZ=          -2735.7013
 XXYZ=              0.0000 YYXZ=              0.0000 ZZXY=           -766.4869
 N-N= 1.494327114189D+03 E-N=-4.953709180016D+03  KE= 8.433374905996D+02
 Symmetry A'   KE= 4.567052305803D+02
 Symmetry A"   KE= 3.866322600193D+02
 No NMR shielding tensors so no spin-rotation constants.
 Leave Link  601 at Wed Sep 27 17:16:31 2023, MaxMem=  3221225472 cpu:              13.7 elap:               0.5
 (Enter /home/center/opt/aarch64/apps/gaussian16/c01/g16/l122.exe)
 CPIOFr:  IOpCl= 0 IRwI=-1 IRwCP=  731 ICalc=  4 LCPTot=     1419224 Len1MO=     3708034 IndFrg=    19959394
 Restoring MOs from calculation   1 to rwf.
 CPIOFr:  IOpCl= 0 IRwI=-2 IRwCP=  731 ICalc=  0 LCPTot=     1419224 Len1MO=     3708034 IndFrg=     5127258
 Counterpoise corrected energy =   -1694.042168776004
                   BSSE energy =       0.000088993675
              sum of fragments =   -1694.039683044258
           complexation energy =      -1.62 kcal/mole (raw)
           complexation energy =      -1.56 kcal/mole (corrected)
 Leave Link  122 at Wed Sep 27 17:16:34 2023, MaxMem=  3221225472 cpu:               8.3 elap:               0.3
 (Enter /home/center/opt/aarch64/apps/gaussian16/c01/g16/l9999.exe)

 Test job not archived.
 1\1\GINC-FX0561\SP\RB3LYP\6-311G(d,p)\C44H28\Z40145W\27-Sep-2023\0\\#P
  TEST b3lyp/6-311G** EmpiricalDispersion=GD3 counterpoise=2\\pentacene
 _A1=0_A2=0_A3=45_p2\\0,1\C,0,-0.5039478476,0.5239478476,-3.6612755801\
 C,0,0.5239480325,-0.5039480325,-3.6612755629\C,0,-0.9861248463,1.00612
 48463,-4.9235927708\C,0,1.0061250889,-0.9861250889,-4.9235926697\C,0,-
 0.4963213507,0.5163213507,-6.096356521\C,0,0.5163216812,-0.4963216812,
 -6.0963564796\C,0,-0.9844684311,1.0044684311,-2.4533174875\C,0,-0.5044
 88426,0.524488426,-1.2140288145\C,0,1.0044685359,-0.9844685359,-2.4533
 173917\C,0,0.5244885437,-0.5044885437,-1.2140288362\H,0,-1.7533559667,
 1.7733559667,-4.9232600459\H,0,-1.7521866813,1.7721866813,-2.453928581
 5\H,0,1.7721859268,-1.7521859268,-2.4539284818\H,0,1.7733558421,-1.753
 3558421,-4.9232597785\H,0,0.8905568758,-0.8705568758,-7.0425276922\H,0
 ,-0.8705565046,0.8905565046,-7.042527775\C,0,-0.9848184961,1.004818496
 1,0.0099998782\C,0,-0.5044883957,0.5244883957,1.2340295553\C,0,1.00481
 85643,-0.9848185643,0.0099998696\C,0,0.5244885146,-0.5044885146,1.2340
 295261\H,0,-1.7524699697,1.7724699697,0.0099999205\H,0,1.772468921,-1.
 752468921,0.0099999641\C,0,-0.9844683048,1.0044683048,2.4733171385\C,0
 ,-0.5039477114,0.5239477114,3.681276331\C,0,1.0044684211,-0.9844684211
 ,2.4733170835\C,0,0.5239479079,-0.5039479079,3.6812763217\H,0,-1.75218
 65527,1.7721865527,2.4739285326\H,0,1.7721858092,-1.7521858092,2.47392
 83796\C,0,-0.9861245177,1.0061245177,4.9435920588\C,0,-0.4963209372,0.
 5163209372,6.116356633\C,0,1.0061247659,-0.9861247659,4.9435919377\C,0
 ,0.5163212637,-0.4963212637,6.1163566075\H,0,-1.7533556504,1.773355650
 4,4.9432601504\H,0,-0.8705567426,0.8905567426,7.0625274368\H,0,0.89055
 70967,-0.8705570967,7.0625272142\H,0,1.7733555414,-1.7533555414,4.9432
 599297\C,0,6.9960521524,0.5239478476,-3.6612755801\C,0,8.0239480325,-0
 .5039480325,-3.6612755629\C,0,6.5138751537,1.0061248463,-4.9235927708\
 C,0,8.5061250889,-0.9861250889,-4.9235926697\C,0,7.0036786493,0.516321
 3507,-6.096356521\C,0,8.0163216812,-0.4963216812,-6.0963564796\C,0,6.5
 155315689,1.0044684311,-2.4533174875\C,0,6.995511574,0.524488426,-1.21
 40288145\C,0,8.5044685359,-0.9844685359,-2.4533173917\C,0,8.0244885437
 ,-0.5044885437,-1.2140288362\H,0,5.7466440333,1.7733559667,-4.92326004
 59\H,0,5.7478133187,1.7721866813,-2.4539285815\H,0,9.2721859268,-1.752
 1859268,-2.4539284818\H,0,9.2733558421,-1.7533558421,-4.9232597785\H,0
 ,8.3905568758,-0.8705568758,-7.0425276922\H,0,6.6294434954,0.890556504
 6,-7.042527775\C,0,6.5151815039,1.0048184961,0.0099998782\C,0,6.995511
 6043,0.5244883957,1.2340295553\C,0,8.5048185643,-0.9848185643,0.009999
 8696\C,0,8.0244885146,-0.5044885146,1.2340295261\H,0,5.7475300303,1.77
 24699697,0.0099999205\H,0,9.272468921,-1.752468921,0.0099999641\C,0,6.
 5155316952,1.0044683048,2.4733171385\C,0,6.9960522886,0.5239477114,3.6
 81276331\C,0,8.5044684211,-0.9844684211,2.4733170835\C,0,8.0239479079,
 -0.5039479079,3.6812763217\H,0,5.7478134473,1.7721865527,2.4739285326\
 H,0,9.2721858092,-1.7521858092,2.4739283796\C,0,6.5138754823,1.0061245
 177,4.9435920588\C,0,7.0036790628,0.5163209372,6.116356633\C,0,8.50612
 47659,-0.9861247659,4.9435919377\C,0,8.0163212637,-0.4963212637,6.1163
 566075\H,0,5.7466443496,1.7733556504,4.9432601504\H,0,6.6294432574,0.8
 905567426,7.0625274368\H,0,8.3905570967,-0.8705570967,7.0625272142\H,0
 ,9.2733555414,-1.7533555414,4.9432599297\\Version=Fujitsu-Arm-G16RevC.
 01\State=1-A'\HF=-847.0198415\RMSD=3.176e-09\Dipole=0.000013,-0.000013
 ,0.\Quadrupole=-7.9754821,-6.3753079,14.35079,-18.2267041,0.,0.\PG=CS 
 [SG(C4H4),X(C40H24)]\\@


 READER, WHETHER YOU BE DILETTANTE OR PROFESSOR ... SHOW YOURSELF TO BE
 MORE HUMAN THAN CRITICAL, AND THEN YOUR PLEASURE WILL INCREASE.
                                           -- DOMENICO SCARLATTI (1738)
 Job cpu time:       0 days  2 hours 48 minutes 39.2 seconds.
 Elapsed time:       0 days  0 hours  4 minutes 24.6 seconds.
 File lengths (MBytes):  RWF=    718 Int=      0 D2E=      0 Chk=    208 Scr=      1
 Normal termination of Gaussian 16 at Wed Sep 27 17:16:40 2023.
