 Entering Gaussian System, Link 0=g16
 Initial command:
 /home/center/opt/aarch64/apps/gaussian16/c01/g16/l1.exe "/data/tmp/Gtmp/1006971/Gau-50.inp" -scrdir="/data/tmp/Gtmp/1006971/"
 Entering Link 1 = /home/center/opt/aarch64/apps/gaussian16/c01/g16/l1.exe PID=        51.
  
 Copyright (c) 1988-2019, Gaussian, Inc.  All Rights Reserved.
  
 This is part of the Gaussian(R) 16 program.  It is based on
 the Gaussian(R) 09 system (copyright 2009, Gaussian, Inc.),
 the Gaussian(R) 03 system (copyright 2003, Gaussian, Inc.),
 the Gaussian(R) 98 system (copyright 1998, Gaussian, Inc.),
 the Gaussian(R) 94 system (copyright 1995, Gaussian, Inc.),
 the Gaussian 92(TM) system (copyright 1992, Gaussian, Inc.),
 the Gaussian 90(TM) system (copyright 1990, Gaussian, Inc.),
 the Gaussian 88(TM) system (copyright 1988, Gaussian, Inc.),
 the Gaussian 86(TM) system (copyright 1986, Carnegie Mellon
 University), and the Gaussian 82(TM) system (copyright 1983,
 Carnegie Mellon University). Gaussian is a federally registered
 trademark of Gaussian, Inc.
  
 This software contains proprietary and confidential information,
 including trade secrets, belonging to Gaussian, Inc.
  
 This software is provided under written license and may be
 used, copied, transmitted, or stored only in accord with that
 written license.
  
 The following legend is applicable only to US Government
 contracts under FAR:
  
                    RESTRICTED RIGHTS LEGEND
  
 Use, reproduction and disclosure by the US Government is
 subject to restrictions as set forth in subparagraphs (a)
 and (c) of the Commercial Computer Software - Restricted
 Rights clause in FAR 52.227-19.
  
 Gaussian, Inc.
 340 Quinnipiac St., Bldg. 40, Wallingford CT 06492
  
  
 ---------------------------------------------------------------
 Warning -- This program may not be used in any manner that
 competes with the business of Gaussian, Inc. or will provide
 assistance to any competitor of Gaussian, Inc.  The licensee
 of this program is prohibited from giving any competitor of
 Gaussian, Inc. access to this program.  By using this program,
 the user acknowledges that Gaussian, Inc. is engaged in the
 business of creating and licensing software in the field of
 computational chemistry and represents and warrants to the
 licensee that it is not a competitor of Gaussian, Inc. and that
 it will not use this program in any manner prohibited above.
 ---------------------------------------------------------------
  

 Cite this work as:
 Gaussian 16, Revision C.01,
 M. J. Frisch, G. W. Trucks, H. B. Schlegel, G. E. Scuseria, 
 M. A. Robb, J. R. Cheeseman, G. Scalmani, V. Barone, 
 G. A. Petersson, H. Nakatsuji, X. Li, M. Caricato, A. V. Marenich, 
 J. Bloino, B. G. Janesko, R. Gomperts, B. Mennucci, H. P. Hratchian, 
 J. V. Ortiz, A. F. Izmaylov, J. L. Sonnenberg, D. Williams-Young, 
 F. Ding, F. Lipparini, F. Egidi, J. Goings, B. Peng, A. Petrone, 
 T. Henderson, D. Ranasinghe, V. G. Zakrzewski, J. Gao, N. Rega, 
 G. Zheng, W. Liang, M. Hada, M. Ehara, K. Toyota, R. Fukuda, 
 J. Hasegawa, M. Ishida, T. Nakajima, Y. Honda, O. Kitao, H. Nakai, 
 T. Vreven, K. Throssell, J. A. Montgomery, Jr., J. E. Peralta, 
 F. Ogliaro, M. J. Bearpark, J. J. Heyd, E. N. Brothers, K. N. Kudin, 
 V. N. Staroverov, T. A. Keith, R. Kobayashi, J. Normand, 
 K. Raghavachari, A. P. Rendell, J. C. Burant, S. S. Iyengar, 
 J. Tomasi, M. Cossi, J. M. Millam, M. Klene, C. Adamo, R. Cammi, 
 J. W. Ochterski, R. L. Martin, K. Morokuma, O. Farkas, 
 J. B. Foresman, and D. J. Fox, Gaussian, Inc., Wallingford CT, 2019.
 
 ************************************************
 Gaussian 16:  Fujitsu-Arm-G16RevC.01  3-Jul-2019
                   27-Sep-2023 
 ************************************************
 %mem=24GB
 %nproc=42
 Will use up to   42 processors via shared memory.
 -------------------------------------------------------------
 #P TEST b3lyp/6-311G** EmpiricalDispersion=GD3 counterpoise=2
 -------------------------------------------------------------
 1/38=1,62=2,172=1/1;
 2/12=2,17=6,18=5,40=1/2;
 1/38=1,53=2,62=2,63=1/22;
 3/5=4,6=6,7=101,11=2,25=1,30=1,74=-5,124=31/1,2,3;
 4//1;
 5/5=2,38=5/2;
 6/7=2,8=2,9=2,10=2,28=1/1;
 1/53=2,62=2,63=1/22;
 3/5=7,6=11,7=101,11=2,25=1,30=1,74=-5,82=7,124=31/1,2,3;
 4//1;
 5/5=2,38=5/2;
 6/7=2,8=2,9=2,10=2,28=1/1;
 1/53=2,62=2,63=1/22(-4);
 99/5=1,9=1/99;
 Leave Link    1 at Wed Sep 27 16:57:09 2023, MaxMem=  3221225472 cpu:               6.0 elap:               0.2
 (Enter /home/center/opt/aarch64/apps/gaussian16/c01/g16/l101.exe)
 ----------------------------
 pentacene_A1=0_A2=0_A3=45_t1
 ----------------------------
 Symbolic Z-matrix:
 Charge =  0 Multiplicity = 1 in supermolecule
 Charge =  0 Multiplicity = 1 in fragment      1.
 Charge =  0 Multiplicity = 1 in fragment      2.
 C(Fragment=1)        -0.50395   0.52395  -3.66128 
 C(Fragment=1)         0.52395  -0.50395  -3.66128 
 C(Fragment=1)        -0.98612   1.00612  -4.92359 
 C(Fragment=1)         1.00613  -0.98613  -4.92359 
 C(Fragment=1)        -0.49632   0.51632  -6.09636 
 C(Fragment=1)         0.51632  -0.49632  -6.09636 
 C(Fragment=1)        -0.98447   1.00447  -2.45332 
 C(Fragment=1)        -0.50449   0.52449  -1.21403 
 C(Fragment=1)         1.00447  -0.98447  -2.45332 
 C(Fragment=1)         0.52449  -0.50449  -1.21403 
 H(Fragment=1)        -1.75336   1.77336  -4.92326 
 H(Fragment=1)        -1.75219   1.77219  -2.45393 
 H(Fragment=1)         1.77219  -1.75219  -2.45393 
 H(Fragment=1)         1.77336  -1.75336  -4.92326 
 H(Fragment=1)         0.89056  -0.87056  -7.04253 
 H(Fragment=1)        -0.87056   0.89056  -7.04253 
 C(Fragment=1)        -0.98482   1.00482   0.01 
 C(Fragment=1)        -0.50449   0.52449   1.23403 
 C(Fragment=1)         1.00482  -0.98482   0.01 
 C(Fragment=1)         0.52449  -0.50449   1.23403 
 H(Fragment=1)        -1.75247   1.77247   0.01 
 H(Fragment=1)         1.77247  -1.75247   0.01 
 C(Fragment=1)        -0.98447   1.00447   2.47332 
 C(Fragment=1)        -0.50395   0.52395   3.68128 
 C(Fragment=1)         1.00447  -0.98447   2.47332 
 C(Fragment=1)         0.52395  -0.50395   3.68128 
 H(Fragment=1)        -1.75219   1.77219   2.47393 
 H(Fragment=1)         1.77219  -1.75219   2.47393 
 C(Fragment=1)        -0.98612   1.00612   4.94359 
 C(Fragment=1)        -0.49632   0.51632   6.11636 
 C(Fragment=1)         1.00612  -0.98612   4.94359 
 C(Fragment=1)         0.51632  -0.49632   6.11636 
 H(Fragment=1)        -1.75336   1.77336   4.94326 
 H(Fragment=1)        -0.87056   0.89056   7.06253 
 H(Fragment=1)         0.89056  -0.87056   7.06253 
 H(Fragment=1)         1.77336  -1.75336   4.94326 
 C(Fragment=2)         4.52395   3.02395  -3.66128 
 C(Fragment=2)         3.49605   1.99605  -3.66128 
 C(Fragment=2)         5.00612   3.50612  -4.92359 
 C(Fragment=2)         3.01387   1.51387  -4.92359 
 C(Fragment=2)         4.51632   3.01632  -6.09636 
 C(Fragment=2)         3.50368   2.00368  -6.09636 
 C(Fragment=2)         5.00447   3.50447  -2.45332 
 C(Fragment=2)         4.52449   3.02449  -1.21403 
 C(Fragment=2)         3.01553   1.51553  -2.45332 
 C(Fragment=2)         3.49551   1.99551  -1.21403 
 H(Fragment=2)         5.77336   4.27336  -4.92326 
 H(Fragment=2)         5.77219   4.27219  -2.45393 
 H(Fragment=2)         2.24781   0.74781  -2.45393 
 H(Fragment=2)         2.24664   0.74664  -4.92326 
 H(Fragment=2)         3.12944   1.62944  -7.04253 
 H(Fragment=2)         4.89056   3.39056  -7.04253 
 C(Fragment=2)         5.00482   3.50482   0.01 
 C(Fragment=2)         4.52449   3.02449   1.23403 
 C(Fragment=2)         3.01518   1.51518   0.01 
 C(Fragment=2)         3.49551   1.99551   1.23403 
 H(Fragment=2)         5.77247   4.27247   0.01 
 H(Fragment=2)         2.24753   0.74753   0.01 
 C(Fragment=2)         5.00447   3.50447   2.47332 
 C(Fragment=2)         4.52395   3.02395   3.68128 
 C(Fragment=2)         3.01553   1.51553   2.47332 
 C(Fragment=2)         3.49605   1.99605   3.68128 
 H(Fragment=2)         5.77219   4.27219   2.47393 
 H(Fragment=2)         2.24781   0.74781   2.47393 
 C(Fragment=2)         5.00612   3.50612   4.94359 
 C(Fragment=2)         4.51632   3.01632   6.11636 
 C(Fragment=2)         3.01388   1.51388   4.94359 
 C(Fragment=2)         3.50368   2.00368   6.11636 
 H(Fragment=2)         5.77336   4.27336   4.94326 
 H(Fragment=2)         4.89056   3.39056   7.06253 
 H(Fragment=2)         3.12944   1.62944   7.06253 
 H(Fragment=2)         2.24664   0.74664   4.94326 
 
 ITRead=  0  0  0  0  0  0  0  0  0  0  0  0  0  0  0  0  0  0  0  0
 ITRead=  0  0  0  0  0  0  0  0  0  0  0  0  0  0  0  0  0  0  0  0
 ITRead=  0  0  0  0  0  0  0  0  0  0  0  0  0  0  0  0  0  0  0  0
 ITRead=  0  0  0  0  0  0  0  0  0  0  0  0
 MicOpt= -1 -1 -1 -1 -1 -1 -1 -1 -1 -1 -1 -1 -1 -1 -1 -1 -1 -1 -1 -1
 MicOpt= -1 -1 -1 -1 -1 -1 -1 -1 -1 -1 -1 -1 -1 -1 -1 -1 -1 -1 -1 -1
 MicOpt= -1 -1 -1 -1 -1 -1 -1 -1 -1 -1 -1 -1 -1 -1 -1 -1 -1 -1 -1 -1
 MicOpt= -1 -1 -1 -1 -1 -1 -1 -1 -1 -1 -1 -1
 NAtoms=     72 NQM=       72 NQMF=       0 NMMI=      0 NMMIF=      0
                NMic=       0 NMicF=      0.
                    Isotopes and Nuclear Properties:
 (Nuclear quadrupole moments (NQMom) in fm**2, nuclear magnetic moments (NMagM)
  in nuclear magnetons)

  Atom         1           2           3           4           5           6           7           8           9          10
 IAtWgt=          12          12          12          12          12          12          12          12          12          12
 AtmWgt=  12.0000000  12.0000000  12.0000000  12.0000000  12.0000000  12.0000000  12.0000000  12.0000000  12.0000000  12.0000000
 NucSpn=           0           0           0           0           0           0           0           0           0           0
 AtZEff=   0.0000000   0.0000000   0.0000000   0.0000000   0.0000000   0.0000000   0.0000000   0.0000000   0.0000000   0.0000000
 NQMom=    0.0000000   0.0000000   0.0000000   0.0000000   0.0000000   0.0000000   0.0000000   0.0000000   0.0000000   0.0000000
 NMagM=    0.0000000   0.0000000   0.0000000   0.0000000   0.0000000   0.0000000   0.0000000   0.0000000   0.0000000   0.0000000
 AtZNuc=   6.0000000   6.0000000   6.0000000   6.0000000   6.0000000   6.0000000   6.0000000   6.0000000   6.0000000   6.0000000

  Atom        11          12          13          14          15          16          17          18          19          20
 IAtWgt=           1           1           1           1           1           1          12          12          12          12
 AtmWgt=   1.0078250   1.0078250   1.0078250   1.0078250   1.0078250   1.0078250  12.0000000  12.0000000  12.0000000  12.0000000
 NucSpn=           1           1           1           1           1           1           0           0           0           0
 AtZEff=   0.0000000   0.0000000   0.0000000   0.0000000   0.0000000   0.0000000   0.0000000   0.0000000   0.0000000   0.0000000
 NQMom=    0.0000000   0.0000000   0.0000000   0.0000000   0.0000000   0.0000000   0.0000000   0.0000000   0.0000000   0.0000000
 NMagM=    2.7928460   2.7928460   2.7928460   2.7928460   2.7928460   2.7928460   0.0000000   0.0000000   0.0000000   0.0000000
 AtZNuc=   1.0000000   1.0000000   1.0000000   1.0000000   1.0000000   1.0000000   6.0000000   6.0000000   6.0000000   6.0000000

  Atom        21          22          23          24          25          26          27          28          29          30
 IAtWgt=           1           1          12          12          12          12           1           1          12          12
 AtmWgt=   1.0078250   1.0078250  12.0000000  12.0000000  12.0000000  12.0000000   1.0078250   1.0078250  12.0000000  12.0000000
 NucSpn=           1           1           0           0           0           0           1           1           0           0
 AtZEff=   0.0000000   0.0000000   0.0000000   0.0000000   0.0000000   0.0000000   0.0000000   0.0000000   0.0000000   0.0000000
 NQMom=    0.0000000   0.0000000   0.0000000   0.0000000   0.0000000   0.0000000   0.0000000   0.0000000   0.0000000   0.0000000
 NMagM=    2.7928460   2.7928460   0.0000000   0.0000000   0.0000000   0.0000000   2.7928460   2.7928460   0.0000000   0.0000000
 AtZNuc=   1.0000000   1.0000000   6.0000000   6.0000000   6.0000000   6.0000000   1.0000000   1.0000000   6.0000000   6.0000000

  Atom        31          32          33          34          35          36          37          38          39          40
 IAtWgt=          12          12           1           1           1           1          12          12          12          12
 AtmWgt=  12.0000000  12.0000000   1.0078250   1.0078250   1.0078250   1.0078250  12.0000000  12.0000000  12.0000000  12.0000000
 NucSpn=           0           0           1           1           1           1           0           0           0           0
 AtZEff=   0.0000000   0.0000000   0.0000000   0.0000000   0.0000000   0.0000000   0.0000000   0.0000000   0.0000000   0.0000000
 NQMom=    0.0000000   0.0000000   0.0000000   0.0000000   0.0000000   0.0000000   0.0000000   0.0000000   0.0000000   0.0000000
 NMagM=    0.0000000   0.0000000   2.7928460   2.7928460   2.7928460   2.7928460   0.0000000   0.0000000   0.0000000   0.0000000
 AtZNuc=   6.0000000   6.0000000   1.0000000   1.0000000   1.0000000   1.0000000   6.0000000   6.0000000   6.0000000   6.0000000

  Atom        41          42          43          44          45          46          47          48          49          50
 IAtWgt=          12          12          12          12          12          12           1           1           1           1
 AtmWgt=  12.0000000  12.0000000  12.0000000  12.0000000  12.0000000  12.0000000   1.0078250   1.0078250   1.0078250   1.0078250
 NucSpn=           0           0           0           0           0           0           1           1           1           1
 AtZEff=   0.0000000   0.0000000   0.0000000   0.0000000   0.0000000   0.0000000   0.0000000   0.0000000   0.0000000   0.0000000
 NQMom=    0.0000000   0.0000000   0.0000000   0.0000000   0.0000000   0.0000000   0.0000000   0.0000000   0.0000000   0.0000000
 NMagM=    0.0000000   0.0000000   0.0000000   0.0000000   0.0000000   0.0000000   2.7928460   2.7928460   2.7928460   2.7928460
 AtZNuc=   6.0000000   6.0000000   6.0000000   6.0000000   6.0000000   6.0000000   1.0000000   1.0000000   1.0000000   1.0000000

  Atom        51          52          53          54          55          56          57          58          59          60
 IAtWgt=           1           1          12          12          12          12           1           1          12          12
 AtmWgt=   1.0078250   1.0078250  12.0000000  12.0000000  12.0000000  12.0000000   1.0078250   1.0078250  12.0000000  12.0000000
 NucSpn=           1           1           0           0           0           0           1           1           0           0
 AtZEff=   0.0000000   0.0000000   0.0000000   0.0000000   0.0000000   0.0000000   0.0000000   0.0000000   0.0000000   0.0000000
 NQMom=    0.0000000   0.0000000   0.0000000   0.0000000   0.0000000   0.0000000   0.0000000   0.0000000   0.0000000   0.0000000
 NMagM=    2.7928460   2.7928460   0.0000000   0.0000000   0.0000000   0.0000000   2.7928460   2.7928460   0.0000000   0.0000000
 AtZNuc=   1.0000000   1.0000000   6.0000000   6.0000000   6.0000000   6.0000000   1.0000000   1.0000000   6.0000000   6.0000000

  Atom        61          62          63          64          65          66          67          68          69          70
 IAtWgt=          12          12           1           1          12          12          12          12           1           1
 AtmWgt=  12.0000000  12.0000000   1.0078250   1.0078250  12.0000000  12.0000000  12.0000000  12.0000000   1.0078250   1.0078250
 NucSpn=           0           0           1           1           0           0           0           0           1           1
 AtZEff=   0.0000000   0.0000000   0.0000000   0.0000000   0.0000000   0.0000000   0.0000000   0.0000000   0.0000000   0.0000000
 NQMom=    0.0000000   0.0000000   0.0000000   0.0000000   0.0000000   0.0000000   0.0000000   0.0000000   0.0000000   0.0000000
 NMagM=    0.0000000   0.0000000   2.7928460   2.7928460   0.0000000   0.0000000   0.0000000   0.0000000   2.7928460   2.7928460
 AtZNuc=   6.0000000   6.0000000   1.0000000   1.0000000   6.0000000   6.0000000   6.0000000   6.0000000   1.0000000   1.0000000

  Atom        71          72
 IAtWgt=           1           1
 AtmWgt=   1.0078250   1.0078250
 NucSpn=           1           1
 AtZEff=   0.0000000   0.0000000
 NQMom=    0.0000000   0.0000000
 NMagM=    2.7928460   2.7928460
 AtZNuc=   1.0000000   1.0000000
 Leave Link  101 at Wed Sep 27 16:57:11 2023, MaxMem=  3221225472 cpu:               2.5 elap:               0.1
 (Enter /home/center/opt/aarch64/apps/gaussian16/c01/g16/l202.exe)
 Stoichiometry    C44H28
 Framework group  CS[SG(C4H4),X(C40H24)]
 Deg. of freedom   109
 Full point group                 CS      NOp   2
 Largest Abelian subgroup         CS      NOp   2
 Largest concise Abelian subgroup CS      NOp   2
                         Standard orientation:                         
 ---------------------------------------------------------------------
 Center     Atomic      Atomic             Coordinates (Angstroms)
 Number     Number       Type             X           Y           Z
 ---------------------------------------------------------------------
      1          6           0        1.257162   -2.298097    3.671276
      2          6           0       -0.196502   -2.298097    3.671276
      3          6           0        1.939063   -2.298097    4.933593
      4          6           0       -0.878403   -2.298097    4.933593
      5          6           0        1.246377   -2.298097    6.106357
      6          6           0       -0.185717   -2.298097    6.106357
      7          6           0        1.936721   -2.298097    2.463318
      8          6           0        1.257927   -2.298097    1.224029
      9          6           0       -0.876061   -2.298097    2.463317
     10          6           0       -0.197267   -2.298097    1.224029
     11          1           0        3.024092   -2.298097    4.933260
     12          1           0        3.022438   -2.298097    2.463929
     13          1           0       -1.961777   -2.298097    2.463929
     14          1           0       -1.963432   -2.298097    4.933260
     15          1           0       -0.714965   -2.298097    7.052528
     16          1           0        1.775625   -2.298097    7.052528
     17          6           0        1.937216   -2.298097    0.000000
     18          6           0        1.257927   -2.298097   -1.224029
     19          6           0       -0.876556   -2.298097    0.000000
     20          6           0       -0.197267   -2.298097   -1.224029
     21          1           0        3.022839   -2.298097    0.000000
     22          1           0       -1.962177   -2.298097    0.000000
     23          6           0        1.936721   -2.298097   -2.463318
     24          6           0        1.257162   -2.298097   -3.671276
     25          6           0       -0.876061   -2.298097   -2.463317
     26          6           0       -0.196502   -2.298097   -3.671276
     27          1           0        3.022438   -2.298097   -2.463929
     28          1           0       -1.961777   -2.298097   -2.463929
     29          6           0        1.939063   -2.298097   -4.933593
     30          6           0        1.246377   -2.298097   -6.106357
     31          6           0       -0.878403   -2.298097   -4.933593
     32          6           0       -0.185717   -2.298097   -6.106357
     33          1           0        3.024092   -2.298097   -4.933260
     34          1           0        1.775625   -2.298097   -7.052528
     35          1           0       -0.714965   -2.298097   -7.052528
     36          1           0       -1.963432   -2.298097   -4.933260
     37          6           0       -0.530330    3.024929    3.671276
     38          6           0       -0.530330    1.571265    3.671276
     39          6           0       -0.530330    3.706830    4.933593
     40          6           0       -0.530330    0.889363    4.933593
     41          6           0       -0.530330    3.014144    6.106357
     42          6           0       -0.530330    1.582050    6.106357
     43          6           0       -0.530330    3.704488    2.463318
     44          6           0       -0.530330    3.025694    1.224029
     45          6           0       -0.530330    0.891706    2.463317
     46          6           0       -0.530330    1.570500    1.224029
     47          1           0       -0.530330    4.791859    4.933260
     48          1           0       -0.530330    4.790205    2.463929
     49          1           0       -0.530330   -0.194010    2.463929
     50          1           0       -0.530330   -0.195665    4.933260
     51          1           0       -0.530330    1.052802    7.052528
     52          1           0       -0.530330    3.543392    7.052528
     53          6           0       -0.530330    3.704983    0.000000
     54          6           0       -0.530330    3.025694   -1.224029
     55          6           0       -0.530330    0.891211    0.000000
     56          6           0       -0.530330    1.570500   -1.224029
     57          1           0       -0.530330    4.790606    0.000000
     58          1           0       -0.530330   -0.194410    0.000000
     59          6           0       -0.530330    3.704488   -2.463318
     60          6           0       -0.530330    3.024929   -3.671276
     61          6           0       -0.530330    0.891706   -2.463317
     62          6           0       -0.530330    1.571265   -3.671276
     63          1           0       -0.530330    4.790205   -2.463929
     64          1           0       -0.530330   -0.194010   -2.463929
     65          6           0       -0.530330    3.706830   -4.933593
     66          6           0       -0.530330    3.014144   -6.106357
     67          6           0       -0.530330    0.889363   -4.933593
     68          6           0       -0.530330    1.582050   -6.106357
     69          1           0       -0.530330    4.791859   -4.933260
     70          1           0       -0.530330    3.543392   -7.052528
     71          1           0       -0.530330    1.052802   -7.052528
     72          1           0       -0.530330   -0.195665   -4.933260
 ---------------------------------------------------------------------
 Rotational constants (GHZ):           0.1309987           0.0563744           0.0419100
 Leave Link  202 at Wed Sep 27 16:57:14 2023, MaxMem=  3221225472 cpu:               0.6 elap:               0.0
 (Enter /home/center/opt/aarch64/apps/gaussian16/c01/g16/l122.exe)
 Counterpoise: doing full-system calculation.
 Leave Link  122 at Wed Sep 27 16:57:16 2023, MaxMem=  3221225472 cpu:               0.4 elap:               0.0
 (Enter /home/center/opt/aarch64/apps/gaussian16/c01/g16/l301.exe)
 Standard basis: 6-311G(d,p) (5D, 7F)
 Ernie: Thresh=  0.10000D-02 Tol=  0.10000D-05 Strict=F.
 There are   528 symmetry adapted cartesian basis functions of A'  symmetry.
 There are   476 symmetry adapted cartesian basis functions of A"  symmetry.
 There are   504 symmetry adapted basis functions of A'  symmetry.
 There are   456 symmetry adapted basis functions of A"  symmetry.
   960 basis functions,  1632 primitive gaussians,  1004 cartesian basis functions
   146 alpha electrons      146 beta electrons
       nuclear repulsion energy      4766.6732249568 Hartrees.
 IExCor=  402 DFT=T Ex+Corr=B3LYP ExCW=0 ScaHFX=  0.200000
 ScaDFX=  0.800000  0.720000  1.000000  0.810000 ScalE2=  1.000000  1.000000
 IRadAn=      5 IRanWt=     -1 IRanGd=            0 ICorTp=0 IEmpDi=131
 NAtoms=   72 NActive=   72 NUniq=   40 SFac= 3.24D+00 NAtFMM=   60 NAOKFM=T Big=F
 Integral buffers will be    131072 words long.
 Raffenetti 2 integral format.
 Two-electron integral symmetry is turned on.
 R6Disp:  Grimme-D3 Dispersion energy=       -0.0924353393 Hartrees.
 Nuclear repulsion after empirical dispersion term =     4766.5807896175 Hartrees.
 Leave Link  301 at Wed Sep 27 16:57:18 2023, MaxMem=  3221225472 cpu:               2.0 elap:               0.1
 (Enter /home/center/opt/aarch64/apps/gaussian16/c01/g16/l302.exe)
 NPDir=0 NMtPBC=     1 NCelOv=     1 NCel=       1 NClECP=     1 NCelD=      1
         NCelK=      1 NCelE2=     1 NClLst=     1 CellRange=     0.0.
 One-electron integrals computed using PRISM.
 One-electron integral symmetry used in STVInt
 NBasis=   960 RedAO= T EigKep=  3.64D-05  NBF=   504   456
 NBsUse=   960 1.00D-06 EigRej= -1.00D+00 NBFU=   504   456
 Precomputing XC quadrature grid using
 IXCGrd= 4 IRadAn=           5 IRanWt=          -1 IRanGd=           0 AccXCQ= 0.00D+00.
 Generated NRdTot=       0 NPtTot=           0 NUsed=           0 NTot=          32
 NSgBfM=   990   990   990   990   990 MxSgAt=    72 MxSgA2=    72.
 Leave Link  302 at Wed Sep 27 16:57:23 2023, MaxMem=  3221225472 cpu:              65.2 elap:               2.0
 (Enter /home/center/opt/aarch64/apps/gaussian16/c01/g16/l303.exe)
 DipDrv:  MaxL=1.
 Leave Link  303 at Wed Sep 27 16:57:25 2023, MaxMem=  3221225472 cpu:              14.1 elap:               0.4
 (Enter /home/center/opt/aarch64/apps/gaussian16/c01/g16/l401.exe)
 ExpMin= 1.03D-01 ExpMax= 4.56D+03 ExpMxC= 6.82D+02 IAcc=3 IRadAn=         5 AccDes= 0.00D+00
 Harris functional with IExCor=  402 and IRadAn=       5 diagonalized for initial guess.
 HarFok:  IExCor=  402 AccDes= 0.00D+00 IRadAn=         5 IDoV= 1 UseB2=F ITyADJ=14
 ICtDFT=  3500011 ScaDFX=  1.000000  1.000000  1.000000  1.000000
 FoFCou: FMM=F IPFlag=           0 FMFlag=      100000 FMFlg1=        2000
         NFxFlg=           0 DoJE=T BraDBF=F KetDBF=T FulRan=T
         wScrn=  0.000000 ICntrl=       500 IOpCl=  0 I1Cent=   200000004 NGrid=           0
         NMat0=    1 NMatS0=      1 NMatT0=    0 NMatD0=    1 NMtDS0=    0 NMtDT0=    0
 Petite list used in FoFCou.
 Harris En= -1694.11243439017    
 JPrj=0 DoOrth=F DoCkMO=F.
 Initial guess orbital symmetries:
       Occupied  (A") (A') (A') (A") (A") (A') (A") (A') (A') (A")
                 (A") (A') (A") (A') (A") (A') (A") (A') (A') (A")
                 (A') (A") (A') (A') (A") (A') (A') (A') (A") (A')
                 (A") (A') (A") (A') (A") (A') (A") (A') (A") (A')
                 (A") (A') (A') (A") (A') (A') (A") (A") (A') (A')
                 (A") (A") (A') (A') (A') (A') (A") (A") (A') (A')
                 (A") (A") (A") (A") (A') (A') (A') (A') (A") (A")
                 (A") (A") (A') (A') (A") (A') (A") (A') (A') (A')
                 (A') (A') (A") (A") (A") (A") (A") (A') (A") (A')
                 (A') (A') (A") (A") (A') (A') (A') (A") (A') (A")
                 (A') (A') (A") (A") (A") (A") (A') (A') (A') (A')
                 (A") (A") (A') (A') (A") (A") (A") (A') (A') (A")
                 (A') (A") (A") (A') (A') (A') (A") (A") (A') (A')
                 (A") (A") (A') (A') (A") (A") (A') (A') (A') (A')
                 (A") (A") (A") (A") (A') (A')
       Virtual   (A') (A') (A") (A") (A") (A") (A') (A') (A') (A')
                 (A") (A") (A') (A') (A") (A") (A') (A") (A') (A')
                 (A') (A') (A") (A') (A") (A') (A") (A") (A') (A")
                 (A') (A") (A') (A") (A") (A') (A") (A') (A') (A')
                 (A") (A') (A") (A') (A") (A') (A") (A') (A') (A')
                 (A') (A") (A') (A") (A') (A') (A") (A") (A') (A")
                 (A") (A") (A') (A') (A") (A') (A") (A') (A") (A")
                 (A') (A") (A') (A") (A') (A') (A") (A") (A') (A')
                 (A") (A') (A") (A') (A') (A") (A') (A') (A") (A')
                 (A") (A') (A") (A") (A') (A') (A") (A') (A") (A")
                 (A') (A') (A") (A') (A') (A") (A') (A") (A") (A')
                 (A') (A") (A") (A') (A') (A') (A") (A") (A') (A')
                 (A') (A") (A') (A") (A") (A') (A') (A") (A") (A')
                 (A") (A') (A") (A') (A") (A") (A') (A') (A") (A')
                 (A') (A") (A") (A") (A') (A') (A') (A') (A") (A')
                 (A") (A') (A') (A") (A") (A") (A') (A") (A") (A')
                 (A') (A') (A") (A") (A') (A') (A") (A') (A') (A")
                 (A') (A') (A") (A') (A") (A') (A") (A") (A') (A")
                 (A') (A") (A') (A') (A") (A') (A") (A') (A") (A')
                 (A") (A') (A") (A') (A") (A') (A') (A") (A') (A")
                 (A') (A") (A") (A') (A') (A") (A") (A') (A') (A")
                 (A") (A') (A") (A') (A") (A') (A") (A') (A") (A')
                 (A') (A') (A") (A") (A") (A') (A') (A") (A') (A')
                 (A') (A") (A') (A") (A') (A") (A') (A") (A') (A")
                 (A") (A') (A") (A') (A") (A') (A") (A') (A') (A")
                 (A") (A') (A") (A') (A') (A") (A") (A') (A') (A")
                 (A') (A") (A") (A') (A") (A") (A') (A') (A") (A')
                 (A") (A") (A') (A') (A') (A") (A') (A") (A') (A")
                 (A") (A') (A') (A") (A') (A") (A') (A') (A") (A")
                 (A") (A') (A") (A') (A") (A") (A') (A") (A') (A')
                 (A") (A') (A') (A") (A') (A') (A") (A') (A") (A")
                 (A') (A") (A") (A") (A') (A') (A') (A") (A') (A')
                 (A") (A') (A") (A') (A') (A") (A') (A") (A") (A")
                 (A') (A") (A') (A") (A') (A') (A") (A') (A") (A')
                 (A") (A') (A") (A') (A") (A') (A') (A") (A') (A")
                 (A') (A') (A") (A') (A') (A") (A') (A') (A") (A')
                 (A") (A') (A') (A") (A") (A') (A") (A") (A") (A')
                 (A") (A") (A") (A') (A") (A') (A") (A') (A') (A')
                 (A") (A') (A') (A') (A") (A') (A") (A') (A") (A")
                 (A') (A') (A') (A") (A") (A') (A") (A') (A") (A')
                 (A') (A") (A") (A') (A') (A") (A") (A') (A") (A')
                 (A') (A") (A') (A') (A") (A') (A") (A') (A") (A')
                 (A') (A') (A") (A') (A") (A") (A') (A') (A") (A")
                 (A') (A") (A") (A") (A') (A") (A') (A') (A") (A')
                 (A") (A") (A") (A') (A') (A') (A") (A') (A") (A')
                 (A") (A') (A") (A") (A') (A") (A') (A') (A") (A')
                 (A") (A") (A') (A") (A') (A") (A') (A") (A') (A')
                 (A") (A") (A') (A') (A') (A") (A') (A") (A') (A')
                 (A") (A") (A") (A') (A") (A") (A') (A") (A') (A")
                 (A") (A') (A") (A') (A") (A") (A') (A") (A') (A')
                 (A") (A') (A') (A') (A") (A") (A') (A') (A") (A')
                 (A") (A') (A") (A") (A") (A') (A') (A") (A') (A")
                 (A') (A') (A") (A") (A') (A') (A') (A") (A') (A")
                 (A") (A') (A") (A") (A') (A") (A') (A') (A") (A')
                 (A") (A") (A') (A') (A") (A") (A') (A") (A') (A")
                 (A') (A") (A") (A') (A") (A') (A') (A") (A') (A')
                 (A") (A') (A') (A") (A') (A") (A") (A') (A') (A")
                 (A") (A') (A") (A') (A') (A") (A") (A') (A") (A')
                 (A') (A') (A") (A') (A") (A') (A") (A') (A') (A")
                 (A') (A") (A') (A') (A") (A') (A") (A") (A') (A')
                 (A") (A") (A') (A") (A') (A') (A") (A') (A") (A')
                 (A') (A") (A') (A") (A") (A') (A") (A') (A') (A")
                 (A') (A") (A') (A") (A") (A') (A') (A") (A') (A')
                 (A") (A') (A") (A') (A') (A") (A") (A") (A") (A')
                 (A") (A') (A") (A') (A") (A') (A') (A') (A') (A")
                 (A') (A") (A') (A") (A') (A') (A") (A') (A") (A")
                 (A') (A") (A') (A') (A") (A") (A') (A') (A") (A')
                 (A") (A") (A') (A') (A") (A") (A') (A") (A') (A')
                 (A") (A') (A") (A') (A") (A') (A") (A') (A") (A")
                 (A') (A') (A") (A') (A") (A') (A') (A") (A') (A")
                 (A") (A') (A") (A') (A') (A") (A') (A") (A') (A")
                 (A") (A") (A') (A') (A") (A') (A') (A") (A') (A')
                 (A") (A") (A') (A") (A') (A') (A") (A') (A") (A')
                 (A") (A') (A') (A") (A") (A') (A') (A") (A') (A")
                 (A") (A') (A') (A") (A') (A') (A') (A") (A') (A')
                 (A") (A") (A') (A") (A") (A') (A') (A') (A") (A")
                 (A") (A') (A") (A') (A") (A") (A') (A") (A') (A")
                 (A') (A') (A") (A") (A') (A') (A') (A") (A') (A")
                 (A") (A") (A') (A') (A") (A') (A') (A') (A") (A')
                 (A") (A") (A") (A") (A') (A') (A') (A') (A") (A")
                 (A') (A") (A') (A") (A') (A") (A') (A') (A') (A")
                 (A') (A") (A') (A")
 The electronic state of the initial guess is 1-A'.
 Leave Link  401 at Wed Sep 27 16:57:31 2023, MaxMem=  3221225472 cpu:             106.8 elap:               2.7
 (Enter /home/center/opt/aarch64/apps/gaussian16/c01/g16/l502.exe)
 Integral symmetry usage will be decided dynamically.
 Closed shell SCF:
 Using DIIS extrapolation, IDIIS=  1040.
 NGot=  3221225472 LenX=  3219153746 LenY=  3218144726
 Requested convergence on RMS density matrix=1.00D-08 within 128 cycles.
 Requested convergence on MAX density matrix=1.00D-06.
 Requested convergence on             energy=1.00D-06.
 No special actions if energy rises.
 Fock matrices will be formed incrementally for  20 cycles.
 Integral accuracy reduced to 1.0D-05 until final iterations.

 Cycle   1  Pass 0  IDiag  1:
 FoFJK:  IHMeth= 1 ICntrl=       0 DoSepK=F KAlg= 0 I1Cent=           0 FoldK=F
 IRaf= 580000000 NMat=       1 IRICut=       1 DoRegI=T DoRafI=F ISym2E= 1 IDoP0=0 IntGTp=1.
 FoFCou: FMM=F IPFlag=           0 FMFlag=      100000 FMFlg1=        2000
         NFxFlg=           0 DoJE=F BraDBF=F KetDBF=F FulRan=T
         wScrn=  0.000000 ICntrl=         0 IOpCl=  0 I1Cent=           0 NGrid=           0
         NMat0=    1 NMatS0=      1 NMatT0=    0 NMatD0=    1 NMtDS0=    0 NMtDT0=    0
 Petite list used in FoFCou.
 E= -1693.16258704351    
 DIIS: error= 4.22D-02 at cycle   1 NSaved=   1.
 NSaved= 1 IEnMin= 1 EnMin= -1693.16258704351     IErMin= 1 ErrMin= 4.22D-02
 ErrMax= 4.22D-02  0.00D+00 EMaxC= 1.00D-01 BMatC= 8.91D-01 BMatP= 8.91D-01
 IDIUse=3 WtCom= 5.78D-01 WtEn= 4.22D-01
 Coeff-Com:  0.100D+01
 Coeff-En:   0.100D+01
 Coeff:      0.100D+01
 Gap=     0.049 Goal=   None    Shift=    0.000
 GapD=    0.049 DampG=0.250 DampE=0.500 DampFc=0.2500 IDamp=-1.
 Damping current iteration by 2.50D-01
 RMSDP=1.74D-03 MaxDP=8.55D-02              OVMax= 1.67D-01

 Cycle   2  Pass 0  IDiag  1:
 RMSU=  4.23D-04    CP:  9.83D-01
 E= -1693.46608308120     Delta-E=       -0.303496037686 Rises=F Damp=T
 DIIS: error= 2.47D-02 at cycle   2 NSaved=   2.
 NSaved= 2 IEnMin= 2 EnMin= -1693.46608308120     IErMin= 2 ErrMin= 2.47D-02
 ErrMax= 2.47D-02  0.00D+00 EMaxC= 1.00D-01 BMatC= 2.99D-01 BMatP= 8.91D-01
 IDIUse=3 WtCom= 7.53D-01 WtEn= 2.47D-01
 Coeff-Com: -0.122D+01 0.222D+01
 Coeff-En:   0.000D+00 0.100D+01
 Coeff:     -0.922D+00 0.192D+01
 Gap=     0.052 Goal=   None    Shift=    0.000
 RMSDP=7.14D-04 MaxDP=3.46D-02 DE=-3.03D-01 OVMax= 1.58D-01

 Cycle   3  Pass 0  IDiag  1:
 RMSU=  4.64D-04    CP:  9.57D-01  2.23D+00
 E= -1694.01918240586     Delta-E=       -0.553099324666 Rises=F Damp=F
 DIIS: error= 9.18D-03 at cycle   3 NSaved=   3.
 NSaved= 3 IEnMin= 3 EnMin= -1694.01918240586     IErMin= 3 ErrMin= 9.18D-03
 ErrMax= 9.18D-03  0.00D+00 EMaxC= 1.00D-01 BMatC= 1.51D-02 BMatP= 2.99D-01
 IDIUse=3 WtCom= 9.08D-01 WtEn= 9.18D-02
 Coeff-Com: -0.337D+00 0.653D+00 0.684D+00
 Coeff-En:   0.000D+00 0.000D+00 0.100D+01
 Coeff:     -0.306D+00 0.593D+00 0.713D+00
 Gap=     0.061 Goal=   None    Shift=    0.000
 RMSDP=3.23D-04 MaxDP=2.11D-02 DE=-5.53D-01 OVMax= 1.91D-01

 Cycle   4  Pass 0  IDiag  1:
 RMSU=  2.68D-04    CP:  9.58D-01  2.16D+00  6.15D-01
 E= -1694.00608331006     Delta-E=        0.013099095800 Rises=F Damp=F
 DIIS: error= 1.51D-02 at cycle   4 NSaved=   4.
 NSaved= 4 IEnMin= 3 EnMin= -1694.01918240586     IErMin= 3 ErrMin= 9.18D-03
 ErrMax= 1.51D-02  0.00D+00 EMaxC= 1.00D-01 BMatC= 2.46D-02 BMatP= 1.51D-02
 IDIUse=2 WtCom= 0.00D+00 WtEn= 1.00D+00
 Coeff-En:   0.000D+00 0.000D+00 0.608D+00 0.392D+00
 Coeff:      0.000D+00 0.000D+00 0.608D+00 0.392D+00
 Gap=     0.055 Goal=   None    Shift=    0.000
 RMSDP=1.83D-04 MaxDP=1.36D-02 DE= 1.31D-02 OVMax= 1.33D-01

 Cycle   5  Pass 0  IDiag  1:
 RMSU=  9.11D-05    CP:  9.58D-01  2.16D+00  7.27D-01  4.38D-01
 E= -1694.03494930168     Delta-E=       -0.028865991623 Rises=F Damp=F
 DIIS: error= 1.82D-03 at cycle   5 NSaved=   5.
 NSaved= 5 IEnMin= 5 EnMin= -1694.03494930168     IErMin= 5 ErrMin= 1.82D-03
 ErrMax= 1.82D-03  0.00D+00 EMaxC= 1.00D-01 BMatC= 1.29D-03 BMatP= 1.51D-02
 IDIUse=3 WtCom= 9.82D-01 WtEn= 1.82D-02
 Coeff-Com: -0.166D-01 0.395D-01 0.301D+00 0.206D+00 0.470D+00
 Coeff-En:   0.000D+00 0.000D+00 0.000D+00 0.000D+00 0.100D+01
 Coeff:     -0.163D-01 0.388D-01 0.296D+00 0.202D+00 0.480D+00
 Gap=     0.056 Goal=   None    Shift=    0.000
 RMSDP=6.00D-05 MaxDP=3.37D-03 DE=-2.89D-02 OVMax= 2.30D-02

 Cycle   6  Pass 0  IDiag  1:
 RMSU=  3.79D-05    CP:  9.58D-01  2.17D+00  7.61D-01  4.59D-01  5.26D-01
 E= -1694.03576771596     Delta-E=       -0.000818414276 Rises=F Damp=F
 DIIS: error= 1.26D-03 at cycle   6 NSaved=   6.
 NSaved= 6 IEnMin= 6 EnMin= -1694.03576771596     IErMin= 6 ErrMin= 1.26D-03
 ErrMax= 1.26D-03  0.00D+00 EMaxC= 1.00D-01 BMatC= 4.29D-04 BMatP= 1.29D-03
 IDIUse=3 WtCom= 9.87D-01 WtEn= 1.26D-02
 Coeff-Com:  0.464D-04 0.156D-02 0.132D+00 0.871D-01 0.367D+00 0.413D+00
 Coeff-En:   0.000D+00 0.000D+00 0.000D+00 0.000D+00 0.314D+00 0.686D+00
 Coeff:      0.458D-04 0.154D-02 0.130D+00 0.861D-01 0.366D+00 0.416D+00
 Gap=     0.056 Goal=   None    Shift=    0.000
 RMSDP=2.85D-05 MaxDP=1.43D-03 DE=-8.18D-04 OVMax= 1.21D-02

 Cycle   7  Pass 0  IDiag  1:
 RMSU=  1.17D-05    CP:  9.58D-01  2.17D+00  7.66D-01  4.42D-01  6.12D-01
                    CP:  3.60D-01
 E= -1694.03627766886     Delta-E=       -0.000509952902 Rises=F Damp=F
 DIIS: error= 3.25D-04 at cycle   7 NSaved=   7.
 NSaved= 7 IEnMin= 7 EnMin= -1694.03627766886     IErMin= 7 ErrMin= 3.25D-04
 ErrMax= 3.25D-04  0.00D+00 EMaxC= 1.00D-01 BMatC= 2.84D-05 BMatP= 4.29D-04
 IDIUse=3 WtCom= 9.97D-01 WtEn= 3.25D-03
 Coeff-Com:  0.222D-02-0.345D-02 0.632D-01 0.406D-01 0.203D+00 0.277D+00
 Coeff-Com:  0.417D+00
 Coeff-En:   0.000D+00 0.000D+00 0.000D+00 0.000D+00 0.000D+00 0.120D-01
 Coeff-En:   0.988D+00
 Coeff:      0.221D-02-0.344D-02 0.630D-01 0.404D-01 0.202D+00 0.276D+00
 Coeff:      0.419D+00
 Gap=     0.056 Goal=   None    Shift=    0.000
 RMSDP=6.88D-06 MaxDP=4.62D-04 DE=-5.10D-04 OVMax= 3.70D-03

 Initial convergence to 1.0D-05 achieved.  Increase integral accuracy.
 Cycle   8  Pass 1  IDiag  1:
 E= -1694.03604371867     Delta-E=        0.000233950190 Rises=F Damp=F
 DIIS: error= 6.78D-04 at cycle   1 NSaved=   1.
 NSaved= 1 IEnMin= 1 EnMin= -1694.03604371867     IErMin= 1 ErrMin= 6.78D-04
 ErrMax= 6.78D-04  0.00D+00 EMaxC= 1.00D-01 BMatC= 4.86D-05 BMatP= 4.86D-05
 IDIUse=3 WtCom= 9.93D-01 WtEn= 6.78D-03
 Coeff-Com:  0.100D+01
 Coeff-En:   0.100D+01
 Coeff:      0.100D+01
 Gap=     0.056 Goal=   None    Shift=    0.000
 RMSDP=6.88D-06 MaxDP=4.62D-04 DE= 2.34D-04 OVMax= 3.56D-03

 Cycle   9  Pass 1  IDiag  1:
 RMSU=  3.08D-04    CP:  9.98D-01
 E= -1694.03607462523     Delta-E=       -0.000030906558 Rises=F Damp=F
 DIIS: error= 2.90D-04 at cycle   2 NSaved=   2.
 NSaved= 2 IEnMin= 2 EnMin= -1694.03607462523     IErMin= 2 ErrMin= 2.90D-04
 ErrMax= 2.90D-04  0.00D+00 EMaxC= 1.00D-01 BMatC= 1.05D-05 BMatP= 4.86D-05
 IDIUse=3 WtCom= 9.97D-01 WtEn= 2.90D-03
 Coeff-Com:  0.214D+00 0.786D+00
 Coeff-En:   0.000D+00 0.100D+01
 Coeff:      0.214D+00 0.786D+00
 Gap=     0.056 Goal=   None    Shift=    0.000
 RMSDP=1.17D-05 MaxDP=8.75D-04 DE=-3.09D-05 OVMax= 7.85D-03

 Cycle  10  Pass 1  IDiag  1:
 RMSU=  1.13D-05    CP:  9.98D-01  1.01D+00
 E= -1694.03603850365     Delta-E=        0.000036121576 Rises=F Damp=F
 DIIS: error= 6.02D-04 at cycle   3 NSaved=   3.
 NSaved= 3 IEnMin= 2 EnMin= -1694.03607462523     IErMin= 2 ErrMin= 2.90D-04
 ErrMax= 6.02D-04  0.00D+00 EMaxC= 1.00D-01 BMatC= 3.93D-05 BMatP= 1.05D-05
 IDIUse=3 WtCom= 2.90D-01 WtEn= 7.10D-01
 Coeff-Com:  0.167D-02 0.659D+00 0.339D+00
 Coeff-En:   0.000D+00 0.721D+00 0.279D+00
 Coeff:      0.483D-03 0.703D+00 0.296D+00
 Gap=     0.056 Goal=   None    Shift=    0.000
 RMSDP=6.47D-06 MaxDP=5.09D-04 DE= 3.61D-05 OVMax= 4.61D-03

 Cycle  11  Pass 1  IDiag  1:
 RMSU=  1.32D-06    CP:  9.98D-01  1.01D+00  4.41D-01
 E= -1694.03608592235     Delta-E=       -0.000047418693 Rises=F Damp=F
 DIIS: error= 7.13D-05 at cycle   4 NSaved=   4.
 NSaved= 4 IEnMin= 4 EnMin= -1694.03608592235     IErMin= 4 ErrMin= 7.13D-05
 ErrMax= 7.13D-05  0.00D+00 EMaxC= 1.00D-01 BMatC= 1.38D-06 BMatP= 1.05D-05
 IDIUse=1 WtCom= 1.00D+00 WtEn= 0.00D+00
 Coeff-Com: -0.335D-02 0.442D+00 0.165D+00 0.397D+00
 Coeff:     -0.335D-02 0.442D+00 0.165D+00 0.397D+00
 Gap=     0.056 Goal=   None    Shift=    0.000
 RMSDP=1.26D-06 MaxDP=9.07D-05 DE=-4.74D-05 OVMax= 6.72D-04

 Cycle  12  Pass 1  IDiag  1:
 RMSU=  5.18D-07    CP:  9.98D-01  1.01D+00  3.49D-01  6.25D-01
 E= -1694.03608746811     Delta-E=       -0.000001545760 Rises=F Damp=F
 DIIS: error= 1.32D-05 at cycle   5 NSaved=   5.
 NSaved= 5 IEnMin= 5 EnMin= -1694.03608746811     IErMin= 5 ErrMin= 1.32D-05
 ErrMax= 1.32D-05  0.00D+00 EMaxC= 1.00D-01 BMatC= 2.09D-08 BMatP= 1.38D-06
 IDIUse=1 WtCom= 1.00D+00 WtEn= 0.00D+00
 Coeff-Com: -0.241D-02 0.288D+00 0.105D+00 0.274D+00 0.336D+00
 Coeff:     -0.241D-02 0.288D+00 0.105D+00 0.274D+00 0.336D+00
 Gap=     0.056 Goal=   None    Shift=    0.000
 RMSDP=1.84D-07 MaxDP=1.46D-05 DE=-1.55D-06 OVMax= 1.27D-04

 Cycle  13  Pass 1  IDiag  1:
 RMSU=  1.53D-07    CP:  9.98D-01  1.01D+00  3.49D-01  6.65D-01  8.32D-01
 E= -1694.03608749116     Delta-E=       -0.000000023054 Rises=F Damp=F
 DIIS: error= 3.66D-06 at cycle   6 NSaved=   6.
 NSaved= 6 IEnMin= 6 EnMin= -1694.03608749116     IErMin= 6 ErrMin= 3.66D-06
 ErrMax= 3.66D-06  0.00D+00 EMaxC= 1.00D-01 BMatC= 1.23D-09 BMatP= 2.09D-08
 IDIUse=1 WtCom= 1.00D+00 WtEn= 0.00D+00
 Coeff-Com: -0.103D-02 0.119D+00 0.428D-01 0.117D+00 0.216D+00 0.506D+00
 Coeff:     -0.103D-02 0.119D+00 0.428D-01 0.117D+00 0.216D+00 0.506D+00
 Gap=     0.056 Goal=   None    Shift=    0.000
 RMSDP=6.19D-08 MaxDP=4.39D-06 DE=-2.31D-08 OVMax= 3.77D-05

 Cycle  14  Pass 1  IDiag  1:
 RMSU=  4.51D-08    CP:  9.98D-01  1.01D+00  3.48D-01  6.56D-01  8.80D-01
                    CP:  7.93D-01
 E= -1694.03608749255     Delta-E=       -0.000000001387 Rises=F Damp=F
 DIIS: error= 1.00D-06 at cycle   7 NSaved=   7.
 NSaved= 7 IEnMin= 7 EnMin= -1694.03608749255     IErMin= 7 ErrMin= 1.00D-06
 ErrMax= 1.00D-06  0.00D+00 EMaxC= 1.00D-01 BMatC= 2.06D-10 BMatP= 1.23D-09
 IDIUse=1 WtCom= 1.00D+00 WtEn= 0.00D+00
 Coeff-Com: -0.411D-03 0.461D-01 0.162D-01 0.465D-01 0.986D-01 0.345D+00
 Coeff-Com:  0.448D+00
 Coeff:     -0.411D-03 0.461D-01 0.162D-01 0.465D-01 0.986D-01 0.345D+00
 Coeff:      0.448D+00
 Gap=     0.056 Goal=   None    Shift=    0.000
 RMSDP=1.67D-08 MaxDP=7.74D-07 DE=-1.39D-09 OVMax= 6.35D-06

 Cycle  15  Pass 1  IDiag  1:
 RMSU=  1.11D-08    CP:  9.98D-01  1.01D+00  3.48D-01  6.58D-01  8.83D-01
                    CP:  8.25D-01  7.55D-01
 E= -1694.03608749276     Delta-E=       -0.000000000216 Rises=F Damp=F
 DIIS: error= 1.90D-07 at cycle   8 NSaved=   8.
 NSaved= 8 IEnMin= 8 EnMin= -1694.03608749276     IErMin= 8 ErrMin= 1.90D-07
 ErrMax= 1.90D-07  0.00D+00 EMaxC= 1.00D-01 BMatC= 1.38D-11 BMatP= 2.06D-10
 IDIUse=1 WtCom= 1.00D+00 WtEn= 0.00D+00
 Coeff-Com:  0.174D-04-0.264D-02-0.127D-02-0.114D-02-0.233D-02 0.864D-01
 Coeff-Com:  0.196D+00 0.725D+00
 Coeff:      0.174D-04-0.264D-02-0.127D-02-0.114D-02-0.233D-02 0.864D-01
 Coeff:      0.196D+00 0.725D+00
 Gap=     0.056 Goal=   None    Shift=    0.000
 RMSDP=6.88D-09 MaxDP=2.39D-07 DE=-2.16D-10 OVMax= 1.53D-06

 SCF Done:  E(RB3LYP) =  -1694.03608749     A.U. after   15 cycles
            NFock= 15  Conv=0.69D-08     -V/T= 2.0042
 KE= 1.686919748329D+03 PE=-1.346396735327D+04 EE= 5.316430727826D+03
 Leave Link  502 at Wed Sep 27 16:59:26 2023, MaxMem=  3221225472 cpu:            4152.0 elap:             113.0
 (Enter /home/center/opt/aarch64/apps/gaussian16/c01/g16/l601.exe)
 Copying SCF densities to generalized density rwf, IOpCl= 0 IROHF=0.

 **********************************************************************

            Population analysis using the SCF Density.

 **********************************************************************

 Orbital symmetries:
       Occupied  (A") (A') (A') (A") (A") (A') (A') (A") (A') (A')
                 (A") (A') (A") (A') (A") (A') (A") (A') (A') (A")
                 (A") (A') (A") (A') (A") (A') (A') (A") (A') (A")
                 (A") (A') (A") (A') (A') (A") (A') (A") (A') (A')
                 (A") (A') (A") (A') (A') (A") (A') (A') (A") (A')
                 (A") (A") (A') (A') (A") (A') (A') (A') (A") (A")
                 (A') (A") (A") (A") (A') (A') (A') (A') (A") (A")
                 (A') (A") (A") (A") (A') (A') (A') (A") (A') (A')
                 (A') (A") (A") (A') (A") (A") (A') (A") (A') (A')
                 (A") (A') (A") (A") (A') (A') (A") (A') (A") (A')
                 (A") (A') (A') (A') (A') (A") (A") (A") (A') (A')
                 (A') (A") (A') (A") (A") (A") (A") (A') (A') (A")
                 (A') (A') (A") (A') (A") (A') (A') (A') (A") (A")
                 (A") (A") (A') (A') (A") (A') (A") (A') (A') (A")
                 (A') (A") (A") (A") (A') (A')
       Virtual   (A') (A') (A") (A") (A") (A") (A') (A") (A') (A')
                 (A') (A') (A") (A') (A') (A") (A') (A") (A') (A')
                 (A") (A") (A') (A") (A') (A") (A') (A") (A") (A')
                 (A") (A') (A") (A') (A') (A") (A") (A') (A') (A')
                 (A") (A') (A") (A') (A') (A') (A") (A") (A") (A")
                 (A') (A') (A') (A') (A') (A") (A') (A") (A') (A')
                 (A") (A") (A") (A") (A') (A') (A") (A') (A") (A")
                 (A') (A') (A") (A') (A") (A') (A") (A') (A") (A')
                 (A") (A') (A') (A") (A') (A') (A") (A') (A') (A")
                 (A') (A") (A") (A') (A") (A') (A') (A") (A") (A')
                 (A') (A") (A') (A') (A") (A") (A') (A") (A") (A')
                 (A") (A') (A') (A") (A') (A") (A') (A') (A") (A')
                 (A") (A') (A") (A') (A") (A') (A') (A') (A") (A")
                 (A') (A') (A") (A') (A') (A") (A') (A") (A") (A')
                 (A') (A') (A') (A") (A") (A") (A") (A') (A") (A')
                 (A") (A') (A") (A") (A') (A") (A') (A') (A') (A')
                 (A") (A") (A') (A") (A') (A') (A") (A') (A") (A')
                 (A') (A") (A") (A') (A') (A") (A") (A") (A') (A')
                 (A") (A') (A") (A') (A") (A") (A") (A') (A") (A')
                 (A') (A") (A') (A') (A') (A") (A") (A') (A") (A')
                 (A") (A') (A") (A') (A") (A') (A") (A') (A") (A')
                 (A') (A') (A") (A') (A") (A") (A') (A") (A') (A")
                 (A') (A') (A") (A") (A') (A") (A") (A') (A') (A')
                 (A') (A") (A') (A") (A') (A") (A') (A") (A") (A')
                 (A') (A") (A') (A") (A") (A') (A") (A') (A') (A")
                 (A') (A") (A") (A') (A") (A') (A") (A') (A") (A")
                 (A') (A') (A') (A") (A') (A") (A') (A") (A') (A")
                 (A') (A") (A") (A') (A") (A') (A") (A') (A") (A')
                 (A') (A') (A") (A") (A') (A") (A') (A") (A') (A")
                 (A') (A") (A') (A") (A") (A') (A') (A") (A') (A")
                 (A') (A') (A") (A') (A") (A') (A") (A") (A') (A")
                 (A') (A") (A') (A") (A') (A") (A') (A") (A') (A")
                 (A') (A') (A") (A') (A") (A') (A') (A") (A") (A")
                 (A') (A") (A") (A') (A') (A') (A") (A') (A") (A')
                 (A") (A') (A') (A") (A') (A") (A') (A") (A') (A')
                 (A") (A') (A') (A") (A') (A') (A") (A') (A") (A')
                 (A") (A') (A") (A') (A") (A') (A") (A") (A') (A")
                 (A') (A") (A") (A") (A") (A') (A') (A") (A') (A')
                 (A") (A") (A') (A') (A") (A') (A') (A') (A") (A')
                 (A') (A") (A') (A") (A") (A') (A") (A') (A') (A")
                 (A") (A') (A') (A") (A") (A') (A') (A") (A") (A')
                 (A') (A') (A") (A') (A') (A") (A") (A') (A") (A')
                 (A') (A") (A') (A") (A") (A') (A') (A') (A") (A")
                 (A') (A') (A") (A") (A") (A") (A') (A") (A') (A")
                 (A') (A") (A") (A') (A') (A') (A") (A') (A") (A")
                 (A') (A') (A") (A') (A") (A') (A") (A") (A') (A")
                 (A') (A') (A") (A') (A") (A') (A') (A") (A") (A')
                 (A") (A') (A") (A') (A") (A') (A') (A") (A') (A")
                 (A') (A") (A") (A') (A") (A") (A') (A") (A") (A')
                 (A") (A") (A') (A') (A") (A") (A') (A') (A") (A")
                 (A') (A') (A") (A') (A') (A") (A') (A") (A') (A')
                 (A") (A") (A') (A") (A') (A") (A') (A') (A") (A')
                 (A") (A') (A") (A') (A") (A') (A") (A') (A") (A')
                 (A") (A") (A') (A") (A') (A") (A") (A') (A') (A')
                 (A") (A') (A") (A') (A") (A') (A") (A") (A') (A")
                 (A') (A") (A") (A') (A') (A") (A") (A') (A') (A')
                 (A") (A') (A") (A') (A") (A") (A') (A') (A') (A")
                 (A') (A") (A") (A') (A') (A') (A') (A") (A") (A")
                 (A') (A') (A") (A') (A") (A") (A") (A') (A') (A")
                 (A') (A') (A") (A') (A") (A') (A") (A') (A") (A')
                 (A") (A') (A') (A") (A') (A') (A") (A') (A") (A')
                 (A') (A") (A') (A') (A') (A") (A") (A') (A") (A')
                 (A") (A") (A') (A") (A') (A") (A') (A") (A') (A")
                 (A") (A') (A') (A') (A") (A") (A') (A") (A') (A")
                 (A') (A") (A") (A') (A') (A') (A") (A') (A') (A')
                 (A") (A") (A") (A') (A') (A') (A") (A") (A') (A')
                 (A") (A') (A") (A') (A") (A") (A') (A') (A") (A')
                 (A") (A') (A") (A') (A") (A') (A") (A") (A') (A')
                 (A') (A") (A') (A") (A') (A") (A") (A') (A") (A")
                 (A') (A') (A') (A") (A') (A') (A") (A") (A") (A')
                 (A') (A") (A") (A') (A') (A') (A") (A") (A') (A")
                 (A") (A") (A') (A") (A') (A') (A') (A') (A") (A")
                 (A') (A") (A') (A') (A') (A") (A") (A") (A') (A')
                 (A') (A") (A') (A") (A') (A") (A') (A") (A') (A")
                 (A") (A') (A') (A") (A') (A') (A") (A') (A') (A')
                 (A") (A") (A') (A") (A") (A') (A') (A') (A") (A")
                 (A") (A') (A") (A") (A') (A') (A") (A") (A') (A")
                 (A') (A') (A") (A") (A') (A') (A') (A") (A') (A")
                 (A") (A") (A') (A') (A") (A') (A') (A') (A") (A")
                 (A') (A") (A") (A") (A') (A') (A") (A') (A') (A")
                 (A') (A") (A') (A") (A') (A') (A") (A') (A") (A')
                 (A') (A") (A') (A")
 The electronic state is 1-A'.
 Alpha  occ. eigenvalues --  -10.20006 -10.20006 -10.19965 -10.19964 -10.19870
 Alpha  occ. eigenvalues --  -10.19870 -10.19833 -10.19833 -10.19089 -10.19031
 Alpha  occ. eigenvalues --  -10.19005 -10.19004 -10.18972 -10.18972 -10.18809
 Alpha  occ. eigenvalues --  -10.18809 -10.18782 -10.18782 -10.18740 -10.18740
 Alpha  occ. eigenvalues --  -10.18663 -10.18663 -10.17545 -10.17545 -10.17519
 Alpha  occ. eigenvalues --  -10.17519 -10.17403 -10.17403 -10.17323 -10.17323
 Alpha  occ. eigenvalues --  -10.16741 -10.16741 -10.16646 -10.16646 -10.16562
 Alpha  occ. eigenvalues --  -10.16562 -10.16551 -10.16499 -10.16499 -10.16112
 Alpha  occ. eigenvalues --  -10.16070 -10.16070 -10.15998 -10.15998  -0.90553
 Alpha  occ. eigenvalues --   -0.89027  -0.87938  -0.86686  -0.86502  -0.84208
 Alpha  occ. eigenvalues --   -0.83531  -0.81087  -0.81004  -0.79618  -0.79451
 Alpha  occ. eigenvalues --   -0.78390  -0.77203  -0.77104  -0.76918  -0.75313
 Alpha  occ. eigenvalues --   -0.74614  -0.74007  -0.72924  -0.71535  -0.70325
 Alpha  occ. eigenvalues --   -0.68462  -0.67787  -0.66000  -0.63780  -0.63406
 Alpha  occ. eigenvalues --   -0.62144  -0.61381  -0.61061  -0.60970  -0.60309
 Alpha  occ. eigenvalues --   -0.59810  -0.58718  -0.58671  -0.57993  -0.56368
 Alpha  occ. eigenvalues --   -0.53726  -0.53562  -0.53303  -0.51446  -0.51307
 Alpha  occ. eigenvalues --   -0.50996  -0.50615  -0.49512  -0.48404  -0.48123
 Alpha  occ. eigenvalues --   -0.47256  -0.47094  -0.46519  -0.46482  -0.46182
 Alpha  occ. eigenvalues --   -0.45980  -0.45237  -0.44919  -0.44152  -0.44132
 Alpha  occ. eigenvalues --   -0.43516  -0.42803  -0.42654  -0.42534  -0.42441
 Alpha  occ. eigenvalues --   -0.41758  -0.41642  -0.41378  -0.41366  -0.40655
 Alpha  occ. eigenvalues --   -0.40331  -0.40100  -0.40044  -0.39300  -0.39144
 Alpha  occ. eigenvalues --   -0.39016  -0.38278  -0.37579  -0.37288  -0.37215
 Alpha  occ. eigenvalues --   -0.36488  -0.35464  -0.35123  -0.35074  -0.34738
 Alpha  occ. eigenvalues --   -0.34037  -0.33888  -0.33548  -0.33290  -0.32920
 Alpha  occ. eigenvalues --   -0.32724  -0.31670  -0.30314  -0.29986  -0.29644
 Alpha  occ. eigenvalues --   -0.29294  -0.28293  -0.27341  -0.27163  -0.25592
 Alpha  occ. eigenvalues --   -0.25274  -0.23551  -0.23092  -0.21236  -0.18985
 Alpha  occ. eigenvalues --   -0.16478
 Alpha virt. eigenvalues --   -0.10892  -0.08426  -0.05650  -0.04014  -0.03165
 Alpha virt. eigenvalues --   -0.01484  -0.01435   0.00845   0.00859   0.01179
 Alpha virt. eigenvalues --    0.01368   0.03308   0.03690   0.03865   0.03974
 Alpha virt. eigenvalues --    0.03977   0.05119   0.05734   0.05804   0.06185
 Alpha virt. eigenvalues --    0.06189   0.07036   0.07079   0.07311   0.07732
 Alpha virt. eigenvalues --    0.08565   0.08713   0.09463   0.09576   0.10185
 Alpha virt. eigenvalues --    0.10596   0.10955   0.11931   0.12503   0.12968
 Alpha virt. eigenvalues --    0.13201   0.13736   0.13949   0.14747   0.15386
 Alpha virt. eigenvalues --    0.15593   0.16782   0.16943   0.17187   0.17581
 Alpha virt. eigenvalues --    0.17818   0.17949   0.18618   0.19497   0.20559
 Alpha virt. eigenvalues --    0.20877   0.21339   0.21965   0.22153   0.23441
 Alpha virt. eigenvalues --    0.23931   0.24371   0.24669   0.25188   0.25663
 Alpha virt. eigenvalues --    0.25909   0.26313   0.26587   0.26801   0.27065
 Alpha virt. eigenvalues --    0.27383   0.27537   0.28469   0.28658   0.28814
 Alpha virt. eigenvalues --    0.28959   0.29545   0.29675   0.29803   0.30143
 Alpha virt. eigenvalues --    0.30196   0.30307   0.31220   0.31824   0.32161
 Alpha virt. eigenvalues --    0.32337   0.33394   0.33883   0.34269   0.34357
 Alpha virt. eigenvalues --    0.34727   0.35224   0.35283   0.35511   0.35712
 Alpha virt. eigenvalues --    0.35878   0.36239   0.36910   0.37229   0.37285
 Alpha virt. eigenvalues --    0.37769   0.37778   0.38316   0.39009   0.39051
 Alpha virt. eigenvalues --    0.39364   0.39435   0.39492   0.39673   0.40034
 Alpha virt. eigenvalues --    0.40428   0.40646   0.40654   0.40862   0.41505
 Alpha virt. eigenvalues --    0.41551   0.42129   0.42140   0.42207   0.42598
 Alpha virt. eigenvalues --    0.42812   0.43035   0.43377   0.43403   0.43579
 Alpha virt. eigenvalues --    0.43594   0.44298   0.44618   0.45000   0.45282
 Alpha virt. eigenvalues --    0.45317   0.45478   0.45562   0.45635   0.45942
 Alpha virt. eigenvalues --    0.46078   0.46150   0.46402   0.46510   0.46644
 Alpha virt. eigenvalues --    0.47156   0.47410   0.47733   0.48228   0.48859
 Alpha virt. eigenvalues --    0.49114   0.49615   0.49828   0.49828   0.50100
 Alpha virt. eigenvalues --    0.50436   0.50495   0.50803   0.51065   0.51656
 Alpha virt. eigenvalues --    0.52271   0.52555   0.52738   0.53067   0.53337
 Alpha virt. eigenvalues --    0.53949   0.54718   0.55162   0.55833   0.56035
 Alpha virt. eigenvalues --    0.56304   0.56791   0.57599   0.57855   0.57973
 Alpha virt. eigenvalues --    0.58509   0.58558   0.59120   0.59537   0.59681
 Alpha virt. eigenvalues --    0.60033   0.60200   0.60436   0.60849   0.61231
 Alpha virt. eigenvalues --    0.61342   0.61575   0.62071   0.62465   0.62581
 Alpha virt. eigenvalues --    0.62683   0.63189   0.63238   0.63572   0.63625
 Alpha virt. eigenvalues --    0.64102   0.64182   0.64185   0.64608   0.64724
 Alpha virt. eigenvalues --    0.65234   0.65667   0.66271   0.66477   0.67181
 Alpha virt. eigenvalues --    0.67666   0.68329   0.69348   0.69411   0.70061
 Alpha virt. eigenvalues --    0.70307   0.70543   0.71161   0.71431   0.71613
 Alpha virt. eigenvalues --    0.72361   0.72938   0.72984   0.73522   0.73544
 Alpha virt. eigenvalues --    0.73965   0.74621   0.75172   0.75253   0.75284
 Alpha virt. eigenvalues --    0.76161   0.76722   0.77147   0.77424   0.78603
 Alpha virt. eigenvalues --    0.78715   0.79002   0.79014   0.79465   0.79955
 Alpha virt. eigenvalues --    0.80297   0.80384   0.80555   0.80808   0.81537
 Alpha virt. eigenvalues --    0.81918   0.82136   0.82606   0.82740   0.83313
 Alpha virt. eigenvalues --    0.83661   0.84500   0.84711   0.85513   0.85722
 Alpha virt. eigenvalues --    0.86335   0.86546   0.87587   0.87604   0.88123
 Alpha virt. eigenvalues --    0.88428   0.89167   0.89938   0.90300   0.90405
 Alpha virt. eigenvalues --    0.91543   0.91954   0.91992   0.92076   0.93069
 Alpha virt. eigenvalues --    0.93853   0.94449   0.94775   0.94806   0.95507
 Alpha virt. eigenvalues --    0.95551   0.96147   0.97055   0.97337   0.97723
 Alpha virt. eigenvalues --    0.97750   0.98186   0.98577   0.99474   0.99630
 Alpha virt. eigenvalues --    0.99751   1.00175   1.00946   1.01162   1.01337
 Alpha virt. eigenvalues --    1.01791   1.02700   1.02828   1.03091   1.03437
 Alpha virt. eigenvalues --    1.04405   1.04597   1.04687   1.04839   1.05506
 Alpha virt. eigenvalues --    1.05778   1.06591   1.06706   1.06791   1.06947
 Alpha virt. eigenvalues --    1.06998   1.07364   1.07932   1.08488   1.08766
 Alpha virt. eigenvalues --    1.09126   1.09353   1.09681   1.10237   1.10315
 Alpha virt. eigenvalues --    1.10485   1.11322   1.11333   1.12052   1.12186
 Alpha virt. eigenvalues --    1.12895   1.13052   1.13226   1.14103   1.14237
 Alpha virt. eigenvalues --    1.14534   1.14823   1.15134   1.15676   1.16101
 Alpha virt. eigenvalues --    1.16448   1.16989   1.17042   1.17691   1.18380
 Alpha virt. eigenvalues --    1.18878   1.19811   1.20126   1.21551   1.23515
 Alpha virt. eigenvalues --    1.23740   1.24383   1.25626   1.25924   1.26937
 Alpha virt. eigenvalues --    1.27555   1.28142   1.28680   1.28822   1.30615
 Alpha virt. eigenvalues --    1.32029   1.32550   1.33004   1.33447   1.35469
 Alpha virt. eigenvalues --    1.35794   1.35881   1.36381   1.38391   1.38928
 Alpha virt. eigenvalues --    1.39907   1.40065   1.40781   1.40981   1.42011
 Alpha virt. eigenvalues --    1.42478   1.43113   1.43347   1.43459   1.44353
 Alpha virt. eigenvalues --    1.44790   1.45199   1.45318   1.45863   1.46864
 Alpha virt. eigenvalues --    1.47105   1.47543   1.47590   1.48130   1.48225
 Alpha virt. eigenvalues --    1.48889   1.49312   1.49401   1.49472   1.50370
 Alpha virt. eigenvalues --    1.50527   1.50583   1.50985   1.51104   1.51307
 Alpha virt. eigenvalues --    1.51568   1.52639   1.52797   1.52995   1.54122
 Alpha virt. eigenvalues --    1.54274   1.54608   1.54777   1.55180   1.55579
 Alpha virt. eigenvalues --    1.55936   1.56439   1.56935   1.57102   1.57219
 Alpha virt. eigenvalues --    1.57888   1.58317   1.58720   1.58947   1.60413
 Alpha virt. eigenvalues --    1.60715   1.61491   1.62156   1.62345   1.62779
 Alpha virt. eigenvalues --    1.63012   1.63592   1.64040   1.64573   1.65454
 Alpha virt. eigenvalues --    1.65524   1.66398   1.67004   1.68445   1.69117
 Alpha virt. eigenvalues --    1.69491   1.70387   1.70462   1.71479   1.71774
 Alpha virt. eigenvalues --    1.71882   1.72175   1.72698   1.72725   1.72982
 Alpha virt. eigenvalues --    1.73576   1.74312   1.74533   1.74786   1.75687
 Alpha virt. eigenvalues --    1.75774   1.76368   1.76641   1.76833   1.78268
 Alpha virt. eigenvalues --    1.79102   1.79155   1.79822   1.80261   1.80479
 Alpha virt. eigenvalues --    1.81254   1.81724   1.81986   1.82287   1.82651
 Alpha virt. eigenvalues --    1.82810   1.83755   1.83997   1.84005   1.84932
 Alpha virt. eigenvalues --    1.85592   1.85725   1.86319   1.86344   1.86552
 Alpha virt. eigenvalues --    1.86923   1.87039   1.87346   1.88102   1.88886
 Alpha virt. eigenvalues --    1.89172   1.89259   1.89292   1.89868   1.90301
 Alpha virt. eigenvalues --    1.90461   1.90709   1.90726   1.91592   1.91638
 Alpha virt. eigenvalues --    1.92270   1.92611   1.92806   1.93226   1.93574
 Alpha virt. eigenvalues --    1.93797   1.94153   1.94218   1.95145   1.95610
 Alpha virt. eigenvalues --    1.95759   1.96319   1.96668   1.97502   1.97961
 Alpha virt. eigenvalues --    1.97963   1.98466   1.98495   1.99316   2.00304
 Alpha virt. eigenvalues --    2.00901   2.00945   2.01202   2.02127   2.02248
 Alpha virt. eigenvalues --    2.02492   2.02958   2.03404   2.04545   2.05287
 Alpha virt. eigenvalues --    2.07081   2.07856   2.08763   2.09056   2.09647
 Alpha virt. eigenvalues --    2.09750   2.11426   2.11765   2.11886   2.12346
 Alpha virt. eigenvalues --    2.13420   2.13907   2.14081   2.14253   2.14639
 Alpha virt. eigenvalues --    2.16295   2.16833   2.17407   2.18769   2.19014
 Alpha virt. eigenvalues --    2.20089   2.20302   2.21669   2.22194   2.23458
 Alpha virt. eigenvalues --    2.23550   2.23906   2.24338   2.24594   2.24887
 Alpha virt. eigenvalues --    2.26025   2.26330   2.26571   2.27297   2.27628
 Alpha virt. eigenvalues --    2.28167   2.29233   2.29250   2.29565   2.30261
 Alpha virt. eigenvalues --    2.30478   2.32414   2.32582   2.33695   2.34740
 Alpha virt. eigenvalues --    2.35691   2.35872   2.37737   2.37750   2.38362
 Alpha virt. eigenvalues --    2.40292   2.40782   2.41353   2.42801   2.42852
 Alpha virt. eigenvalues --    2.43417   2.44209   2.44619   2.44873   2.46532
 Alpha virt. eigenvalues --    2.46603   2.47528   2.47835   2.47926   2.50125
 Alpha virt. eigenvalues --    2.52204   2.52862   2.53696   2.54091   2.54874
 Alpha virt. eigenvalues --    2.55730   2.55869   2.56688   2.56990   2.57952
 Alpha virt. eigenvalues --    2.58201   2.58627   2.59489   2.59590   2.59862
 Alpha virt. eigenvalues --    2.60257   2.61079   2.61128   2.61504   2.61660
 Alpha virt. eigenvalues --    2.61793   2.62609   2.62868   2.63689   2.63918
 Alpha virt. eigenvalues --    2.64552   2.64897   2.65118   2.65654   2.65718
 Alpha virt. eigenvalues --    2.66500   2.67213   2.67464   2.67883   2.67965
 Alpha virt. eigenvalues --    2.68584   2.68618   2.69093   2.69142   2.69457
 Alpha virt. eigenvalues --    2.69516   2.69662   2.70164   2.70838   2.71164
 Alpha virt. eigenvalues --    2.71566   2.71801   2.72514   2.72528   2.72988
 Alpha virt. eigenvalues --    2.73674   2.73710   2.74166   2.74278   2.74586
 Alpha virt. eigenvalues --    2.74896   2.75065   2.75865   2.76485   2.77341
 Alpha virt. eigenvalues --    2.77475   2.78021   2.78277   2.78580   2.79469
 Alpha virt. eigenvalues --    2.80829   2.81281   2.81411   2.81859   2.82018
 Alpha virt. eigenvalues --    2.82938   2.82948   2.83443   2.83982   2.85364
 Alpha virt. eigenvalues --    2.85972   2.86016   2.86463   2.87229   2.87854
 Alpha virt. eigenvalues --    2.88342   2.88732   2.89293   2.90337   2.91235
 Alpha virt. eigenvalues --    2.92223   2.92470   2.92919   2.93621   2.94021
 Alpha virt. eigenvalues --    2.94858   2.95639   2.96027   2.96118   2.97026
 Alpha virt. eigenvalues --    2.97449   2.97535   2.98390   2.98966   2.99327
 Alpha virt. eigenvalues --    2.99552   3.00861   3.02084   3.04369   3.04919
 Alpha virt. eigenvalues --    3.07565   3.08495   3.10482   3.11177   3.11958
 Alpha virt. eigenvalues --    3.15018   3.15394   3.15624   3.16303   3.17271
 Alpha virt. eigenvalues --    3.18014   3.18697   3.19054   3.19915   3.21066
 Alpha virt. eigenvalues --    3.22601   3.24123   3.25776   3.26467   3.30973
 Alpha virt. eigenvalues --    3.31197   3.31658   3.32039   3.32813   3.34916
 Alpha virt. eigenvalues --    3.35881   3.36179   3.37931   3.37976   3.38173
 Alpha virt. eigenvalues --    3.38977   3.39218   3.39618   3.41090   3.41583
 Alpha virt. eigenvalues --    3.43093   3.43192   3.44434   3.44862   3.46360
 Alpha virt. eigenvalues --    3.47079   3.47136   3.48019   3.50968   3.51266
 Alpha virt. eigenvalues --    3.51403   3.52377   3.52743   3.53779   3.54453
 Alpha virt. eigenvalues --    3.57380   3.57799   3.60087   3.60122   3.62274
 Alpha virt. eigenvalues --    3.62969   3.63950   3.64852   3.65516   3.65964
 Alpha virt. eigenvalues --    3.66541   3.67903   3.69971   3.70020   3.71461
 Alpha virt. eigenvalues --    3.72324   3.72515   3.72881   3.76021   4.00206
 Alpha virt. eigenvalues --    4.00213   4.01289   4.01574   4.03647   4.03824
 Alpha virt. eigenvalues --    4.03925   4.03995   4.16138   4.16570   4.17616
 Alpha virt. eigenvalues --    4.20213   4.21272   4.21342   4.21780   4.22578
 Alpha virt. eigenvalues --    4.22906   4.24777   4.25930   4.26971   4.33494
 Alpha virt. eigenvalues --    4.33511   4.38390   4.42969   4.61841   4.66153
 Alpha virt. eigenvalues --    4.78192   4.79004   4.79715   4.81712   4.81870
 Alpha virt. eigenvalues --    4.82398   4.82624   4.84061   4.86236   4.86505
 Alpha virt. eigenvalues --   23.41571  23.47011  23.56003  23.62981  23.70145
 Alpha virt. eigenvalues --   23.76190  23.80189  23.81151  23.81195  23.83395
 Alpha virt. eigenvalues --   23.83921  23.86927  23.87515  23.89123  23.90135
 Alpha virt. eigenvalues --   23.90437  23.91517  23.93374  23.93423  23.96674
 Alpha virt. eigenvalues --   23.97629  23.99178  23.99506  24.00988  24.08876
 Alpha virt. eigenvalues --   24.09387  24.10218  24.10939  24.11577  24.12179
 Alpha virt. eigenvalues --   24.12644  24.13647  24.13925  24.15146  24.15152
 Alpha virt. eigenvalues --   24.15230  24.15896  24.16406  24.17235  24.17266
 Alpha virt. eigenvalues --   24.19890  24.19937  24.22154  24.22232
          Condensed to atoms (all electrons):
 Mulliken charges:
               1
     1  C   -0.027389
     2  C   -0.061315
     3  C   -0.044096
     4  C   -0.124913
     5  C   -0.079290
     6  C   -0.081151
     7  C    0.006617
     8  C   -0.026832
     9  C   -0.093050
    10  C   -0.046566
    11  H    0.086253
    12  H    0.079187
    13  H    0.079092
    14  H    0.089138
    15  H    0.100803
    16  H    0.098799
    17  C    0.001314
    18  C   -0.026832
    19  C   -0.097631
    20  C   -0.046566
    21  H    0.077935
    22  H    0.077750
    23  C    0.006617
    24  C   -0.027389
    25  C   -0.093050
    26  C   -0.061315
    27  H    0.079187
    28  H    0.079092
    29  C   -0.044096
    30  C   -0.079290
    31  C   -0.124913
    32  C   -0.081151
    33  H    0.086253
    34  H    0.098799
    35  H    0.100803
    36  H    0.089138
    37  C    0.000042
    38  C   -0.148398
    39  C   -0.065801
    40  C   -0.024670
    41  C   -0.084225
    42  C   -0.136795
    43  C   -0.035619
    44  C    0.014139
    45  C    0.012899
    46  C   -0.159617
    47  H    0.076622
    48  H    0.067802
    49  H    0.123509
    50  H    0.130815
    51  H    0.078037
    52  H    0.088636
    53  C   -0.039178
    54  C    0.014139
    55  C    0.007070
    56  C   -0.159617
    57  H    0.066414
    58  H    0.120997
    59  C   -0.035619
    60  C    0.000042
    61  C    0.012899
    62  C   -0.148398
    63  H    0.067802
    64  H    0.123509
    65  C   -0.065801
    66  C   -0.084225
    67  C   -0.024670
    68  C   -0.136795
    69  H    0.076622
    70  H    0.088636
    71  H    0.078037
    72  H    0.130815
 Sum of Mulliken charges =   0.00000
 Mulliken charges with hydrogens summed into heavy atoms:
               1
     1  C   -0.027389
     2  C   -0.061315
     3  C    0.042157
     4  C   -0.035775
     5  C    0.019509
     6  C    0.019652
     7  C    0.085805
     8  C   -0.026832
     9  C   -0.013958
    10  C   -0.046566
    17  C    0.079249
    18  C   -0.026832
    19  C   -0.019881
    20  C   -0.046566
    23  C    0.085805
    24  C   -0.027389
    25  C   -0.013958
    26  C   -0.061315
    29  C    0.042157
    30  C    0.019509
    31  C   -0.035775
    32  C    0.019652
    37  C    0.000042
    38  C   -0.148398
    39  C    0.010821
    40  C    0.106145
    41  C    0.004412
    42  C   -0.058757
    43  C    0.032183
    44  C    0.014139
    45  C    0.136408
    46  C   -0.159617
    53  C    0.027237
    54  C    0.014139
    55  C    0.128067
    56  C   -0.159617
    59  C    0.032183
    60  C    0.000042
    61  C    0.136408
    62  C   -0.148398
    65  C    0.010821
    66  C    0.004412
    67  C    0.106145
    68  C   -0.058757
         Mulliken charges condensed to fragments:
      1     -0.030058
      2      0.030058
 Electronic spatial extent (au):  <R**2>=          24399.8376
 Charge=              0.0000 electrons
 Dipole moment (field-independent basis, Debye):
    X=              0.9375    Y=             -2.4192    Z=              0.0000  Tot=              2.5945
 Quadrupole moment (field-independent basis, Debye-Ang):
   XX=           -244.7335   YY=           -251.1566   ZZ=           -220.6703
   XY=             -0.3166   XZ=              0.0000   YZ=              0.0000
 Traceless Quadrupole moment (field-independent basis, Debye-Ang):
   XX=             -5.8800   YY=            -12.3032   ZZ=             18.1832
   XY=             -0.3166   XZ=              0.0000   YZ=              0.0000
 Octapole moment (field-independent basis, Debye-Ang**2):
  XXX=             46.3992  YYY=            146.5074  ZZZ=              0.0000  XYY=             -6.8281
  XXY=            -67.0649  XXZ=              0.0000  XZZ=             17.3070  YZZ=            -51.6385
  YYZ=              0.0000  XYZ=              0.0000
 Hexadecapole moment (field-independent basis, Debye-Ang**3):
 XXXX=          -1664.7215 YYYY=          -9194.1086 ZZZZ=         -21107.1154 XXXY=            895.8557
 XXXZ=              0.0000 YYYX=            907.4514 YYYZ=              0.0000 ZZZX=              0.0000
 ZZZY=              0.0000 XXYY=          -1878.8092 XXZZ=          -4208.0582 YYZZ=          -5393.7389
 XXYZ=              0.0000 YYXZ=              0.0000 ZZXY=            264.8206
 N-N= 4.766580789618D+03 E-N=-1.346396738549D+04  KE= 1.686919748329D+03
 Symmetry A'   KE= 9.135716100944D+02
 Symmetry A"   KE= 7.733481382347D+02
 No NMR shielding tensors so no spin-rotation constants.
 Leave Link  601 at Wed Sep 27 16:59:30 2023, MaxMem=  3221225472 cpu:              54.1 elap:               1.5
 (Enter /home/center/opt/aarch64/apps/gaussian16/c01/g16/l122.exe)
 CPIOFr:  IOpCl= 0 IRwI=-1 IRwCP=  731 ICalc= -1 LCPTot=     1419224 Len1MO=     3708034 IndFrg=     1419224
 CPIOFr:  IOpCl= 0 IRwI=-1 IRwCP=  731 ICalc=  0 LCPTot=     1419224 Len1MO=     3708034 IndFrg=     5127258
 Counterpoise: doing calculation for fragment   1 using the basis set of the full-system, NewBq=T
 Leave Link  122 at Wed Sep 27 16:59:32 2023, MaxMem=  3221225472 cpu:               8.6 elap:               0.4
 (Enter /home/center/opt/aarch64/apps/gaussian16/c01/g16/l301.exe)
 Basis read from rwf:  (5D, 7F)
 No pseudopotential information found on rwf file.
 There are   528 symmetry adapted cartesian basis functions of A'  symmetry.
 There are   476 symmetry adapted cartesian basis functions of A"  symmetry.
 There are   504 symmetry adapted basis functions of A'  symmetry.
 There are   456 symmetry adapted basis functions of A"  symmetry.
   960 basis functions,  1632 primitive gaussians,  1004 cartesian basis functions
    73 alpha electrons       73 beta electrons
       nuclear repulsion energy      1494.3575059981 Hartrees.
 IExCor=  402 DFT=T Ex+Corr=B3LYP ExCW=0 ScaHFX=  0.200000
 ScaDFX=  0.800000  0.720000  1.000000  0.810000 ScalE2=  1.000000  1.000000
 IRadAn=      5 IRanWt=     -1 IRanGd=            0 ICorTp=0 IEmpDi=131
 NAtoms=   72 NActive=   72 NUniq=   40 SFac= 3.24D+00 NAtFMM=   60 NAOKFM=T Big=F
 Integral buffers will be    131072 words long.
 Raffenetti 2 integral format.
 Two-electron integral symmetry is turned on.
 R6Disp:  Grimme-D3 Dispersion energy=       -0.0303938888 Hartrees.
 Nuclear repulsion after empirical dispersion term =     1494.3271121093 Hartrees.
 No density basis found on file    718.
 Leave Link  301 at Wed Sep 27 16:59:35 2023, MaxMem=  3221225472 cpu:               5.2 elap:               0.2
 (Enter /home/center/opt/aarch64/apps/gaussian16/c01/g16/l302.exe)
 NPDir=0 NMtPBC=     1 NCelOv=     1 NCel=       1 NClECP=     1 NCelD=      1
         NCelK=      1 NCelE2=     1 NClLst=     1 CellRange=     0.0.
 One-electron integrals computed using PRISM.
 One-electron integral symmetry used in STVInt
 NBasis=   960 RedAO= T EigKep=  3.64D-05  NBF=   504   456
 NBsUse=   960 1.00D-06 EigRej= -1.00D+00 NBFU=   504   456
 Precomputing XC quadrature grid using
 IXCGrd= 4 IRadAn=           5 IRanWt=          -1 IRanGd=           0 AccXCQ= 0.00D+00.
 Generated NRdTot=       0 NPtTot=           0 NUsed=           0 NTot=          32
 NSgBfM=   990   990   990   990   990 MxSgAt=    72 MxSgA2=    72.
 Leave Link  302 at Wed Sep 27 16:59:39 2023, MaxMem=  3221225472 cpu:              59.8 elap:               1.6
 (Enter /home/center/opt/aarch64/apps/gaussian16/c01/g16/l303.exe)
 DipDrv:  MaxL=1.
 Leave Link  303 at Wed Sep 27 16:59:41 2023, MaxMem=  3221225472 cpu:              12.7 elap:               0.4
 (Enter /home/center/opt/aarch64/apps/gaussian16/c01/g16/l401.exe)
 ExpMin= 1.03D-01 ExpMax= 4.56D+03 ExpMxC= 6.82D+02 IAcc=3 IRadAn=         5 AccDes= 0.00D+00
 Harris functional with IExCor=  402 and IRadAn=       5 diagonalized for initial guess.
 HarFok:  IExCor=  402 AccDes= 0.00D+00 IRadAn=         5 IDoV= 1 UseB2=F ITyADJ=14
 ICtDFT=  3500011 ScaDFX=  1.000000  1.000000  1.000000  1.000000
 FoFCou: FMM=F IPFlag=           0 FMFlag=      100000 FMFlg1=        2000
         NFxFlg=           0 DoJE=T BraDBF=F KetDBF=T FulRan=T
         wScrn=  0.000000 ICntrl=       500 IOpCl=  0 I1Cent=   200000004 NGrid=           0
         NMat0=    1 NMatS0=      1 NMatT0=    0 NMatD0=    1 NMtDS0=    0 NMtDT0=    0
 Petite list used in FoFCou.
 Harris En= -847.067962949442    
 JPrj=0 DoOrth=F DoCkMO=F.
 Initial guess orbital symmetries:
       Occupied  (A") (A') (A') (A") (A") (A') (A") (A') (A") (A')
                 (A") (A') (A') (A') (A") (A') (A") (A') (A") (A')
                 (A') (A") (A') (A") (A') (A") (A') (A') (A") (A')
                 (A") (A") (A') (A') (A") (A") (A') (A") (A') (A')
                 (A') (A") (A") (A") (A') (A') (A") (A') (A') (A")
                 (A') (A") (A") (A') (A') (A") (A') (A") (A') (A")
                 (A") (A') (A') (A") (A') (A") (A') (A") (A') (A')
                 (A") (A") (A')
       Virtual   (A') (A") (A") (A') (A') (A") (A') (A") (A') (A")
                 (A') (A') (A") (A') (A") (A') (A') (A") (A') (A")
                 (A") (A") (A') (A') (A') (A") (A') (A') (A") (A')
                 (A') (A") (A") (A') (A') (A") (A') (A") (A") (A')
                 (A') (A") (A") (A') (A") (A") (A') (A') (A') (A")
                 (A') (A") (A') (A') (A") (A") (A') (A") (A') (A')
                 (A') (A") (A') (A') (A") (A") (A") (A") (A') (A")
                 (A') (A') (A") (A') (A') (A') (A") (A') (A") (A')
                 (A') (A") (A") (A') (A") (A') (A') (A") (A") (A')
                 (A") (A") (A") (A') (A') (A') (A') (A') (A") (A')
                 (A") (A") (A') (A") (A') (A') (A') (A") (A') (A")
                 (A") (A") (A') (A") (A") (A') (A') (A") (A') (A")
                 (A') (A") (A') (A") (A') (A') (A') (A") (A") (A')
                 (A') (A') (A") (A") (A') (A') (A") (A') (A') (A")
                 (A') (A") (A') (A") (A") (A') (A") (A') (A") (A')
                 (A") (A') (A") (A') (A") (A') (A") (A') (A") (A')
                 (A") (A') (A') (A") (A") (A') (A') (A") (A") (A')
                 (A') (A') (A") (A") (A') (A') (A") (A') (A") (A")
                 (A") (A') (A') (A') (A") (A') (A") (A") (A') (A")
                 (A') (A') (A') (A') (A") (A") (A") (A') (A') (A")
                 (A') (A") (A') (A') (A") (A") (A") (A') (A") (A")
                 (A') (A') (A') (A") (A') (A") (A') (A") (A') (A")
                 (A') (A") (A") (A') (A") (A') (A') (A') (A") (A')
                 (A') (A") (A") (A") (A') (A") (A') (A") (A') (A')
                 (A") (A') (A") (A') (A') (A") (A") (A") (A') (A")
                 (A') (A') (A') (A") (A') (A") (A") (A") (A') (A')
                 (A") (A') (A") (A') (A') (A") (A') (A") (A') (A")
                 (A') (A") (A') (A") (A') (A") (A") (A') (A') (A")
                 (A") (A') (A') (A") (A") (A') (A') (A") (A') (A')
                 (A") (A') (A') (A") (A') (A") (A') (A") (A") (A')
                 (A') (A') (A") (A') (A") (A") (A") (A') (A') (A")
                 (A") (A') (A') (A") (A') (A") (A') (A") (A') (A")
                 (A') (A") (A') (A") (A') (A') (A") (A') (A") (A')
                 (A') (A') (A') (A") (A") (A') (A") (A') (A") (A")
                 (A') (A") (A') (A") (A") (A') (A') (A") (A') (A')
                 (A") (A') (A") (A') (A") (A') (A') (A") (A') (A')
                 (A") (A') (A") (A') (A") (A') (A") (A") (A') (A')
                 (A") (A") (A") (A') (A') (A") (A') (A") (A') (A")
                 (A") (A') (A") (A") (A') (A') (A') (A") (A') (A")
                 (A') (A") (A') (A") (A') (A') (A") (A') (A") (A")
                 (A') (A') (A") (A") (A') (A") (A") (A') (A') (A")
                 (A") (A') (A') (A') (A") (A") (A') (A') (A") (A")
                 (A') (A') (A") (A") (A") (A') (A") (A') (A") (A')
                 (A') (A") (A') (A') (A') (A") (A") (A') (A") (A')
                 (A') (A") (A') (A") (A') (A") (A') (A') (A") (A")
                 (A') (A") (A') (A") (A") (A") (A') (A') (A') (A")
                 (A') (A") (A') (A") (A") (A') (A') (A") (A') (A")
                 (A') (A") (A') (A") (A") (A") (A') (A') (A") (A")
                 (A') (A') (A") (A') (A') (A') (A") (A") (A") (A")
                 (A') (A') (A') (A') (A") (A") (A') (A") (A") (A')
                 (A') (A") (A') (A") (A') (A") (A') (A") (A') (A')
                 (A") (A") (A') (A") (A") (A') (A') (A") (A') (A')
                 (A") (A') (A") (A") (A') (A') (A") (A") (A') (A')
                 (A") (A') (A') (A") (A") (A') (A") (A') (A") (A')
                 (A') (A') (A') (A") (A") (A') (A") (A') (A") (A')
                 (A") (A') (A") (A') (A") (A") (A') (A') (A") (A')
                 (A') (A") (A") (A') (A") (A") (A') (A') (A") (A')
                 (A") (A') (A') (A') (A") (A') (A") (A') (A') (A")
                 (A") (A") (A") (A') (A") (A') (A') (A") (A') (A")
                 (A') (A') (A') (A") (A") (A') (A") (A') (A') (A")
                 (A") (A') (A") (A") (A') (A") (A') (A") (A') (A')
                 (A') (A") (A") (A') (A') (A") (A') (A") (A') (A')
                 (A") (A') (A") (A") (A') (A") (A') (A") (A') (A")
                 (A") (A") (A") (A') (A') (A") (A') (A') (A') (A")
                 (A') (A") (A') (A") (A') (A") (A') (A") (A") (A')
                 (A") (A') (A') (A") (A") (A') (A") (A') (A') (A")
                 (A") (A") (A') (A") (A") (A') (A') (A') (A") (A')
                 (A') (A") (A') (A") (A') (A") (A') (A") (A') (A')
                 (A") (A') (A") (A') (A') (A") (A') (A') (A") (A")
                 (A') (A") (A') (A") (A') (A") (A") (A') (A') (A')
                 (A") (A") (A') (A") (A') (A') (A") (A") (A') (A')
[...]
                 (A') (A") (A') (A') (A') (A") (A") (A") (A") (A')
                 (A') (A') (A") (A") (A') (A") (A') (A") (A') (A')
                 (A") (A") (A')
       Virtual   (A') (A") (A") (A') (A') (A") (A') (A') (A') (A")
                 (A") (A') (A") (A') (A") (A') (A") (A") (A') (A")
                 (A') (A') (A") (A') (A") (A') (A') (A') (A') (A")
                 (A") (A") (A") (A') (A') (A") (A') (A") (A') (A")
                 (A') (A') (A') (A") (A') (A") (A") (A') (A') (A")
                 (A") (A') (A') (A") (A') (A") (A") (A") (A') (A")
                 (A') (A') (A') (A') (A') (A") (A') (A') (A") (A")
                 (A") (A') (A') (A') (A") (A') (A") (A") (A") (A')
                 (A') (A") (A') (A") (A") (A') (A") (A') (A') (A')
                 (A') (A') (A") (A") (A") (A") (A') (A") (A') (A")
                 (A') (A') (A') (A") (A") (A') (A') (A") (A') (A")
                 (A') (A") (A") (A") (A') (A') (A") (A') (A') (A")
                 (A') (A") (A") (A') (A') (A") (A') (A") (A') (A")
                 (A") (A') (A') (A') (A') (A") (A") (A") (A') (A")
                 (A') (A") (A') (A") (A') (A') (A") (A") (A') (A")
                 (A') (A") (A') (A") (A') (A') (A") (A') (A") (A")
                 (A') (A") (A') (A') (A") (A") (A') (A") (A') (A")
                 (A') (A') (A") (A') (A') (A") (A") (A') (A') (A')
                 (A") (A') (A") (A") (A") (A") (A') (A") (A') (A')
                 (A") (A') (A") (A') (A') (A') (A") (A') (A") (A')
                 (A") (A") (A') (A') (A") (A") (A') (A') (A") (A')
                 (A') (A') (A') (A") (A") (A") (A") (A') (A') (A")
                 (A') (A") (A") (A') (A") (A') (A") (A') (A") (A')
                 (A") (A') (A') (A") (A') (A") (A") (A') (A') (A")
                 (A") (A') (A') (A") (A") (A') (A") (A") (A") (A')
                 (A') (A") (A') (A') (A") (A') (A') (A") (A') (A")
                 (A") (A') (A") (A') (A') (A") (A") (A") (A') (A')
                 (A") (A') (A') (A") (A") (A") (A') (A") (A') (A')
                 (A") (A') (A") (A') (A") (A') (A') (A') (A") (A')
                 (A") (A") (A') (A') (A") (A") (A') (A") (A') (A")
                 (A') (A') (A") (A") (A') (A') (A") (A') (A') (A')
                 (A") (A") (A') (A") (A') (A") (A') (A") (A') (A')
                 (A') (A") (A") (A") (A') (A") (A') (A') (A') (A")
                 (A") (A') (A") (A') (A') (A") (A') (A") (A") (A')
                 (A') (A") (A') (A") (A") (A') (A') (A") (A') (A")
                 (A') (A") (A') (A") (A') (A") (A") (A') (A') (A")
                 (A') (A") (A') (A') (A") (A") (A') (A") (A') (A')
                 (A") (A') (A") (A') (A') (A") (A') (A") (A') (A")
                 (A") (A') (A") (A') (A") (A') (A") (A') (A') (A")
                 (A") (A') (A") (A') (A') (A") (A") (A') (A') (A")
                 (A') (A") (A') (A") (A') (A') (A")
 The electronic state is 1-A'.
 Alpha  occ. eigenvalues --  -10.18931 -10.18930 -10.18896 -10.18895 -10.18848
 Alpha  occ. eigenvalues --  -10.18848 -10.18813 -10.18813 -10.17956 -10.17955
 Alpha  occ. eigenvalues --  -10.17920 -10.17920 -10.17919 -10.17919 -10.17875
 Alpha  occ. eigenvalues --  -10.17875 -10.17863 -10.17863 -10.17808 -10.17808
 Alpha  occ. eigenvalues --  -10.17781 -10.17781  -0.89340  -0.87865  -0.85549
 Alpha  occ. eigenvalues --   -0.82415  -0.79820  -0.78521  -0.78314  -0.75991
 Alpha  occ. eigenvalues --   -0.74255  -0.72901  -0.69196  -0.67344  -0.62728
 Alpha  occ. eigenvalues --   -0.62370  -0.61108  -0.59964  -0.59301  -0.57689
 Alpha  occ. eigenvalues --   -0.52709  -0.52573  -0.52293  -0.49654  -0.48513
 Alpha  occ. eigenvalues --   -0.47160  -0.46110  -0.45590  -0.45476  -0.43928
 Alpha  occ. eigenvalues --   -0.43182  -0.42578  -0.41808  -0.41572  -0.41386
 Alpha  occ. eigenvalues --   -0.40692  -0.40405  -0.39579  -0.38193  -0.36732
 Alpha  occ. eigenvalues --   -0.36341  -0.35550  -0.34094  -0.33809  -0.33058
 Alpha  occ. eigenvalues --   -0.32930  -0.31612  -0.29665  -0.28406  -0.26623
 Alpha  occ. eigenvalues --   -0.24364  -0.22582  -0.17855
 Alpha virt. eigenvalues --   -0.09755  -0.04464  -0.02747  -0.00147   0.02073
 Alpha virt. eigenvalues --    0.02370   0.03189   0.04746   0.04859   0.04871
 Alpha virt. eigenvalues --    0.06161   0.06575   0.07968   0.08162   0.08303
 Alpha virt. eigenvalues --    0.09607   0.10049   0.11524   0.11533   0.13796
 Alpha virt. eigenvalues --    0.14111   0.14670   0.18092   0.18194   0.18832
 Alpha virt. eigenvalues --    0.19391   0.22815   0.23002   0.24379   0.24942
 Alpha virt. eigenvalues --    0.25581   0.27528   0.27575   0.28012   0.28228
 Alpha virt. eigenvalues --    0.28947   0.29389   0.30158   0.30759   0.31175
 Alpha virt. eigenvalues --    0.32897   0.34528   0.36420   0.36484   0.37134
 Alpha virt. eigenvalues --    0.37503   0.37629   0.37651   0.38116   0.38643
 Alpha virt. eigenvalues --    0.39094   0.39439   0.39739   0.40236   0.40435
 Alpha virt. eigenvalues --    0.41918   0.41926   0.41940   0.42289   0.42318
 Alpha virt. eigenvalues --    0.42643   0.43748   0.44233   0.44835   0.45295
 Alpha virt. eigenvalues --    0.45683   0.45924   0.45953   0.46379   0.47165
 Alpha virt. eigenvalues --    0.47805   0.47809   0.47978   0.48073   0.48231
 Alpha virt. eigenvalues --    0.48568   0.49414   0.49572   0.51377   0.51846
 Alpha virt. eigenvalues --    0.52370   0.53118   0.53671   0.55998   0.57923
 Alpha virt. eigenvalues --    0.57955   0.59048   0.59201   0.60433   0.60585
 Alpha virt. eigenvalues --    0.60693   0.61101   0.61690   0.62105   0.62173
 Alpha virt. eigenvalues --    0.63432   0.63481   0.64458   0.64535   0.65533
 Alpha virt. eigenvalues --    0.66693   0.66910   0.67680   0.67724   0.70658
 Alpha virt. eigenvalues --    0.71305   0.71405   0.71494   0.72803   0.73989
 Alpha virt. eigenvalues --    0.75405   0.75894   0.76289   0.77801   0.77809
 Alpha virt. eigenvalues --    0.78943   0.79160   0.79723   0.81162   0.81509
 Alpha virt. eigenvalues --    0.82881   0.83001   0.84383   0.84585   0.84713
 Alpha virt. eigenvalues --    0.88087   0.89711   0.89765   0.91536   0.92083
 Alpha virt. eigenvalues --    0.92578   0.93749   0.95806   0.96107   0.96442
 Alpha virt. eigenvalues --    0.96590   0.96905   0.98547   1.00356   1.01118
 Alpha virt. eigenvalues --    1.02686   1.03027   1.03354   1.04405   1.05244
 Alpha virt. eigenvalues --    1.05439   1.05525   1.05950   1.07395   1.07547
 Alpha virt. eigenvalues --    1.07686   1.08438   1.10005   1.10036   1.12070
 Alpha virt. eigenvalues --    1.13223   1.13544   1.13650   1.14526   1.15341
 Alpha virt. eigenvalues --    1.17432   1.18332   1.19657   1.20432   1.23014
 Alpha virt. eigenvalues --    1.23618   1.27884   1.28234   1.30579   1.32076
 Alpha virt. eigenvalues --    1.32743   1.34942   1.37641   1.39236   1.39896
 Alpha virt. eigenvalues --    1.39942   1.40725   1.42751   1.43476   1.43554
 Alpha virt. eigenvalues --    1.45057   1.46086   1.47119   1.47538   1.48841
 Alpha virt. eigenvalues --    1.49280   1.49417   1.50258   1.50674   1.52268
 Alpha virt. eigenvalues --    1.52650   1.53402   1.54331   1.54372   1.54781
 Alpha virt. eigenvalues --    1.54807   1.57107   1.57715   1.58569   1.59882
 Alpha virt. eigenvalues --    1.60106   1.62692   1.63242   1.64856   1.66641
 Alpha virt. eigenvalues --    1.69292   1.69605   1.69709   1.70649   1.71804
 Alpha virt. eigenvalues --    1.72459   1.72619   1.73075   1.73096   1.73680
 Alpha virt. eigenvalues --    1.77494   1.78519   1.79157   1.79419   1.80511
 Alpha virt. eigenvalues --    1.81616   1.81887   1.82058   1.83581   1.84039
 Alpha virt. eigenvalues --    1.85487   1.87392   1.87456   1.87577   1.87728
 Alpha virt. eigenvalues --    1.88131   1.88613   1.90743   1.91387   1.92190
 Alpha virt. eigenvalues --    1.92193   1.92572   1.92670   1.93517   1.93938
 Alpha virt. eigenvalues --    1.94544   1.95483   1.97262   1.99429   2.00088
 Alpha virt. eigenvalues --    2.00602   2.01362   2.03019   2.05757   2.08293
 Alpha virt. eigenvalues --    2.09111   2.09256   2.09792   2.12192   2.14098
 Alpha virt. eigenvalues --    2.15528   2.15584   2.17200   2.19751   2.20833
 Alpha virt. eigenvalues --    2.21576   2.22525   2.23381   2.24503   2.26441
 Alpha virt. eigenvalues --    2.26972   2.27242   2.27719   2.28046   2.29391
 Alpha virt. eigenvalues --    2.33301   2.35725   2.39155   2.39384   2.40817
 Alpha virt. eigenvalues --    2.42649   2.43076   2.45776   2.45994   2.46870
 Alpha virt. eigenvalues --    2.51623   2.51954   2.53354   2.53485   2.55138
 Alpha virt. eigenvalues --    2.56159   2.58701   2.58838   2.59764   2.59776
 Alpha virt. eigenvalues --    2.60682   2.61147   2.61719   2.62222   2.63349
 Alpha virt. eigenvalues --    2.63999   2.64478   2.66054   2.66794   2.67121
 Alpha virt. eigenvalues --    2.67374   2.68356   2.68872   2.68876   2.69372
 Alpha virt. eigenvalues --    2.69557   2.69907   2.70083   2.70281   2.73482
 Alpha virt. eigenvalues --    2.74771   2.74836   2.76066   2.77101   2.77577
 Alpha virt. eigenvalues --    2.78232   2.78455   2.78850   2.80822   2.82359
 Alpha virt. eigenvalues --    2.85535   2.85993   2.86737   2.87294   2.90966
 Alpha virt. eigenvalues --    2.91783   2.92195   2.93676   2.95232   2.95887
 Alpha virt. eigenvalues --    2.99270   2.99858   3.03165   3.05604   3.06852
 Alpha virt. eigenvalues --    3.07371   3.15988   3.16029   3.16647   3.19843
 Alpha virt. eigenvalues --    3.20017   3.23601   3.29134   3.29680   3.31610
 Alpha virt. eigenvalues --    3.35095   3.35458   3.35677   3.35858   3.38023
 Alpha virt. eigenvalues --    3.39887   3.41413   3.44960   3.45362   3.47993
 Alpha virt. eigenvalues --    3.48278   3.50401   3.53073   3.57439   3.58649
 Alpha virt. eigenvalues --    3.61466   3.62620   3.63208   3.63698   3.65910
 Alpha virt. eigenvalues --    3.67534   3.67678   4.00384   4.00442   4.01859
 Alpha virt. eigenvalues --    4.02182   4.16133   4.16678   4.17360   4.21240
 Alpha virt. eigenvalues --    4.22396   4.22517   4.25488   4.38492   4.62290
 Alpha virt. eigenvalues --    4.79179   4.79740   4.80562   4.82562   4.83014
 Alpha virt. eigenvalues --   23.39176  23.54541  23.69085  23.77378  23.80419
 Alpha virt. eigenvalues --   23.81537  23.86099  23.89067  23.89154  23.92210
 Alpha virt. eigenvalues --   23.97563  23.98365  24.09049  24.09932  24.10529
 Alpha virt. eigenvalues --   24.12220  24.13779  24.14375  24.15775  24.15810
 Alpha virt. eigenvalues --   24.20452  24.20497
          Condensed to atoms (all electrons):
 Mulliken charges:
               1
     1  C    0.000000
     2  C    0.000000
     3  C    0.000000
     4  C    0.000000
     5  C    0.000000
     6  C    0.000000
     7  C    0.000000
     8  C    0.000000
     9  C    0.000000
    10  C    0.000000
    11  H    0.000000
    12  H    0.000000
    13  H    0.000000
    14  H    0.000000
    15  H    0.000000
    16  H    0.000000
    17  C    0.000000
    18  C    0.000000
    19  C    0.000000
    20  C    0.000000
    21  H    0.000000
    22  H    0.000000
    23  C    0.000000
    24  C    0.000000
    25  C    0.000000
    26  C    0.000000
    27  H    0.000000
    28  H    0.000000
    29  C    0.000000
    30  C    0.000000
    31  C    0.000000
    32  C    0.000000
    33  H    0.000000
    34  H    0.000000
    35  H    0.000000
    36  H    0.000000
    37  C   -0.059168
    38  C   -0.059168
    39  C   -0.055977
    40  C   -0.055977
    41  C   -0.092198
    42  C   -0.092198
    43  C   -0.016525
    44  C   -0.054498
    45  C   -0.016525
    46  C   -0.054498
    47  H    0.082122
    48  H    0.074853
    49  H    0.074853
    50  H    0.082122
    51  H    0.094847
    52  H    0.094847
    53  C   -0.020341
    54  C   -0.054498
    55  C   -0.020341
    56  C   -0.054498
    57  H    0.073428
    58  H    0.073428
    59  C   -0.016525
    60  C   -0.059168
    61  C   -0.016525
    62  C   -0.059168
    63  H    0.074853
    64  H    0.074853
    65  C   -0.055977
    66  C   -0.092198
    67  C   -0.055977
    68  C   -0.092198
    69  H    0.082122
    70  H    0.094847
    71  H    0.094847
    72  H    0.082122
 Sum of Mulliken charges =   0.00000
 Mulliken charges with hydrogens summed into heavy atoms:
               1
     1  C    0.000000
     2  C    0.000000
     3  C    0.000000
     4  C    0.000000
     5  C    0.000000
     6  C    0.000000
     7  C    0.000000
     8  C    0.000000
     9  C    0.000000
    10  C    0.000000
    17  C    0.000000
    18  C    0.000000
    19  C    0.000000
    20  C    0.000000
    23  C    0.000000
    24  C    0.000000
    25  C    0.000000
    26  C    0.000000
    29  C    0.000000
    30  C    0.000000
    31  C    0.000000
    32  C    0.000000
    37  C   -0.059168
    38  C   -0.059168
    39  C    0.026144
    40  C    0.026144
    41  C    0.002649
    42  C    0.002649
    43  C    0.058328
    44  C   -0.054498
    45  C    0.058328
    46  C   -0.054498
    53  C    0.053087
    54  C   -0.054498
    55  C    0.053087
    56  C   -0.054498
    59  C    0.058328
    60  C   -0.059168
    61  C    0.058328
    62  C   -0.059168
    65  C    0.026144
    66  C    0.002649
    67  C    0.026144
    68  C    0.002649
         Mulliken charges condensed to fragments:
      1      0.000000
      2      0.000000
 Electronic spatial extent (au):  <R**2>=          17640.1928
 Charge=              0.0000 electrons
 Dipole moment (field-independent basis, Debye):
    X=              0.0000    Y=              0.0000    Z=              0.0000  Tot=              0.0000
 Quadrupole moment (field-independent basis, Debye-Ang):
   XX=           -136.3921   YY=           -110.7480   ZZ=           -109.0115
   XY=              0.0000   XZ=              0.0000   YZ=              0.0000
 Traceless Quadrupole moment (field-independent basis, Debye-Ang):
   XX=            -17.6749   YY=              7.9692   ZZ=              9.7057
   XY=              0.0000   XZ=              0.0000   YZ=              0.0000
 Octapole moment (field-independent basis, Debye-Ang**2):
  XXX=           1157.3250  YYY=            939.7282  ZZZ=              0.0000  XYY=            313.2428
  XXY=            385.7750  XXZ=              0.0000  XZZ=            308.3310  YZZ=            308.3310
  YYZ=              0.0000  XYZ=              0.0000
 Hexadecapole moment (field-independent basis, Debye-Ang**3):
 XXXX=          -6701.2227 YYYY=          -6432.6223 ZZZZ=         -10461.4325 XXXY=          -3273.4094
 XXXZ=              0.0000 YYYX=          -2657.9527 YYYZ=              0.0000 ZZZX=              0.0000
 ZZZY=              0.0000 XXYY=          -2233.5361 XXZZ=          -3080.0238 YYZZ=          -2841.3062
 XXYZ=              0.0000 YYXZ=              0.0000 ZZXY=           -872.0918
 N-N= 1.494327110001D+03 E-N=-4.953709171465D+03  KE= 8.433374904125D+02
 Symmetry A'   KE= 4.567052305076D+02
 Symmetry A"   KE= 3.866322599049D+02
 No NMR shielding tensors so no spin-rotation constants.
 Leave Link  601 at Wed Sep 27 17:17:20 2023, MaxMem=  3221225472 cpu:              18.8 elap:               0.5
 (Enter /home/center/opt/aarch64/apps/gaussian16/c01/g16/l122.exe)
 CPIOFr:  IOpCl= 0 IRwI=-1 IRwCP=  731 ICalc=  4 LCPTot=     1419224 Len1MO=     3708034 IndFrg=    19959394
 Restoring MOs from calculation   1 to rwf.
 CPIOFr:  IOpCl= 0 IRwI=-2 IRwCP=  731 ICalc=  0 LCPTot=     1419224 Len1MO=     3708034 IndFrg=     5127258
 Counterpoise corrected energy =   -1694.041458335805
                   BSSE energy =       0.000021983381
              sum of fragments =   -1694.039683044265
           complexation energy =      -1.13 kcal/mole (raw)
           complexation energy =      -1.11 kcal/mole (corrected)
 Leave Link  122 at Wed Sep 27 17:17:23 2023, MaxMem=  3221225472 cpu:               8.3 elap:               0.3
 (Enter /home/center/opt/aarch64/apps/gaussian16/c01/g16/l9999.exe)

 Test job not archived.
 1\1\GINC-FX0507\SP\RB3LYP\6-311G(d,p)\C44H28\Z40145W\27-Sep-2023\0\\#P
  TEST b3lyp/6-311G** EmpiricalDispersion=GD3 counterpoise=2\\pentacene
 _A1=0_A2=0_A3=45_p2\\0,1\C,0,-0.5039478476,0.5239478476,-3.6612755801\
 C,0,0.5239480325,-0.5039480325,-3.6612755629\C,0,-0.9861248463,1.00612
 48463,-4.9235927708\C,0,1.0061250889,-0.9861250889,-4.9235926697\C,0,-
 0.4963213507,0.5163213507,-6.096356521\C,0,0.5163216812,-0.4963216812,
 -6.0963564796\C,0,-0.9844684311,1.0044684311,-2.4533174875\C,0,-0.5044
 88426,0.524488426,-1.2140288145\C,0,1.0044685359,-0.9844685359,-2.4533
 173917\C,0,0.5244885437,-0.5044885437,-1.2140288362\H,0,-1.7533559667,
 1.7733559667,-4.9232600459\H,0,-1.7521866813,1.7721866813,-2.453928581
 5\H,0,1.7721859268,-1.7521859268,-2.4539284818\H,0,1.7733558421,-1.753
 3558421,-4.9232597785\H,0,0.8905568758,-0.8705568758,-7.0425276922\H,0
 ,-0.8705565046,0.8905565046,-7.042527775\C,0,-0.9848184961,1.004818496
 1,0.0099998782\C,0,-0.5044883957,0.5244883957,1.2340295553\C,0,1.00481
 85643,-0.9848185643,0.0099998696\C,0,0.5244885146,-0.5044885146,1.2340
 295261\H,0,-1.7524699697,1.7724699697,0.0099999205\H,0,1.772468921,-1.
 752468921,0.0099999641\C,0,-0.9844683048,1.0044683048,2.4733171385\C,0
 ,-0.5039477114,0.5239477114,3.681276331\C,0,1.0044684211,-0.9844684211
 ,2.4733170835\C,0,0.5239479079,-0.5039479079,3.6812763217\H,0,-1.75218
 65527,1.7721865527,2.4739285326\H,0,1.7721858092,-1.7521858092,2.47392
 83796\C,0,-0.9861245177,1.0061245177,4.9435920588\C,0,-0.4963209372,0.
 5163209372,6.116356633\C,0,1.0061247659,-0.9861247659,4.9435919377\C,0
 ,0.5163212637,-0.4963212637,6.1163566075\H,0,-1.7533556504,1.773355650
 4,4.9432601504\H,0,-0.8705567426,0.8905567426,7.0625274368\H,0,0.89055
 70967,-0.8705570967,7.0625272142\H,0,1.7733555414,-1.7533555414,4.9432
 599297\C,0,7.4960521524,0.5239478476,-3.6612755801\C,0,8.5239480325,-0
 .5039480325,-3.6612755629\C,0,7.0138751537,1.0061248463,-4.9235927708\
 C,0,9.0061250889,-0.9861250889,-4.9235926697\C,0,7.5036786493,0.516321
 3507,-6.096356521\C,0,8.5163216812,-0.4963216812,-6.0963564796\C,0,7.0
 155315689,1.0044684311,-2.4533174875\C,0,7.495511574,0.524488426,-1.21
 40288145\C,0,9.0044685359,-0.9844685359,-2.4533173917\C,0,8.5244885437
 ,-0.5044885437,-1.2140288362\H,0,6.2466440333,1.7733559667,-4.92326004
 59\H,0,6.2478133187,1.7721866813,-2.4539285815\H,0,9.7721859268,-1.752
 1859268,-2.4539284818\H,0,9.7733558421,-1.7533558421,-4.9232597785\H,0
 ,8.8905568758,-0.8705568758,-7.0425276922\H,0,7.1294434954,0.890556504
 6,-7.042527775\C,0,7.0151815039,1.0048184961,0.0099998782\C,0,7.495511
 6043,0.5244883957,1.2340295553\C,0,9.0048185643,-0.9848185643,0.009999
 8696\C,0,8.5244885146,-0.5044885146,1.2340295261\H,0,6.2475300303,1.77
 24699697,0.0099999205\H,0,9.772468921,-1.752468921,0.0099999641\C,0,7.
 0155316952,1.0044683048,2.4733171385\C,0,7.4960522886,0.5239477114,3.6
 81276331\C,0,9.0044684211,-0.9844684211,2.4733170835\C,0,8.5239479079,
 -0.5039479079,3.6812763217\H,0,6.2478134473,1.7721865527,2.4739285326\
 H,0,9.7721858092,-1.7521858092,2.4739283796\C,0,7.0138754823,1.0061245
 177,4.9435920588\C,0,7.5036790628,0.5163209372,6.116356633\C,0,9.00612
 47659,-0.9861247659,4.9435919377\C,0,8.5163212637,-0.4963212637,6.1163
 566075\H,0,6.2466443496,1.7733556504,4.9432601504\H,0,7.1294432574,0.8
 905567426,7.0625274368\H,0,8.8905570967,-0.8705570967,7.0625272142\H,0
 ,9.7733555414,-1.7533555414,4.9432599297\\Version=Fujitsu-Arm-G16RevC.
 01\State=1-A'\HF=-847.0198415\RMSD=3.186e-09\Dipole=0.0000189,-0.00001
 87,0.\Quadrupole=-7.8783043,-6.5002268,14.3785311,-18.3248264,0.,0.\PG
 =CS [SG(C4H4),X(C40H24)]\\@


 YOU CAN LEAD A BOY TO COLLEGE....
 BUT YOU CANNOT MAKE HIM THINK....
           ELBERT HUBBARD
 Job cpu time:       0 days  2 hours 44 minutes  1.7 seconds.
 Elapsed time:       0 days  0 hours  4 minutes 20.9 seconds.
 File lengths (MBytes):  RWF=    718 Int=      0 D2E=      0 Chk=    208 Scr=      1
 Normal termination of Gaussian 16 at Wed Sep 27 17:17:29 2023.
