 Entering Gaussian System, Link 0=g16
 Initial command:
 /home/center/opt/aarch64/apps/gaussian16/c01/g16/l1.exe "/data/tmp/Gtmp/1006993/Gau-49.inp" -scrdir="/data/tmp/Gtmp/1006993/"
 Entering Link 1 = /home/center/opt/aarch64/apps/gaussian16/c01/g16/l1.exe PID=        50.
  
 Copyright (c) 1988-2019, Gaussian, Inc.  All Rights Reserved.
  
 This is part of the Gaussian(R) 16 program.  It is based on
 the Gaussian(R) 09 system (copyright 2009, Gaussian, Inc.),
 the Gaussian(R) 03 system (copyright 2003, Gaussian, Inc.),
 the Gaussian(R) 98 system (copyright 1998, Gaussian, Inc.),
 the Gaussian(R) 94 system (copyright 1995, Gaussian, Inc.),
 the Gaussian 92(TM) system (copyright 1992, Gaussian, Inc.),
 the Gaussian 90(TM) system (copyright 1990, Gaussian, Inc.),
 the Gaussian 88(TM) system (copyright 1988, Gaussian, Inc.),
 the Gaussian 86(TM) system (copyright 1986, Carnegie Mellon
 University), and the Gaussian 82(TM) system (copyright 1983,
 Carnegie Mellon University). Gaussian is a federally registered
 trademark of Gaussian, Inc.
  
 This software contains proprietary and confidential information,
 including trade secrets, belonging to Gaussian, Inc.
  
 This software is provided under written license and may be
 used, copied, transmitted, or stored only in accord with that
 written license.
  
 The following legend is applicable only to US Government
 contracts under FAR:
  
                    RESTRICTED RIGHTS LEGEND
  
 Use, reproduction and disclosure by the US Government is
 subject to restrictions as set forth in subparagraphs (a)
 and (c) of the Commercial Computer Software - Restricted
 Rights clause in FAR 52.227-19.
  
 Gaussian, Inc.
 340 Quinnipiac St., Bldg. 40, Wallingford CT 06492
  
  
 ---------------------------------------------------------------
 Warning -- This program may not be used in any manner that
 competes with the business of Gaussian, Inc. or will provide
 assistance to any competitor of Gaussian, Inc.  The licensee
 of this program is prohibited from giving any competitor of
 Gaussian, Inc. access to this program.  By using this program,
 the user acknowledges that Gaussian, Inc. is engaged in the
 business of creating and licensing software in the field of
 computational chemistry and represents and warrants to the
 licensee that it is not a competitor of Gaussian, Inc. and that
 it will not use this program in any manner prohibited above.
 ---------------------------------------------------------------
  

 Cite this work as:
 Gaussian 16, Revision C.01,
 M. J. Frisch, G. W. Trucks, H. B. Schlegel, G. E. Scuseria, 
 M. A. Robb, J. R. Cheeseman, G. Scalmani, V. Barone, 
 G. A. Petersson, H. Nakatsuji, X. Li, M. Caricato, A. V. Marenich, 
 J. Bloino, B. G. Janesko, R. Gomperts, B. Mennucci, H. P. Hratchian, 
 J. V. Ortiz, A. F. Izmaylov, J. L. Sonnenberg, D. Williams-Young, 
 F. Ding, F. Lipparini, F. Egidi, J. Goings, B. Peng, A. Petrone, 
 T. Henderson, D. Ranasinghe, V. G. Zakrzewski, J. Gao, N. Rega, 
 G. Zheng, W. Liang, M. Hada, M. Ehara, K. Toyota, R. Fukuda, 
 J. Hasegawa, M. Ishida, T. Nakajima, Y. Honda, O. Kitao, H. Nakai, 
 T. Vreven, K. Throssell, J. A. Montgomery, Jr., J. E. Peralta, 
 F. Ogliaro, M. J. Bearpark, J. J. Heyd, E. N. Brothers, K. N. Kudin, 
 V. N. Staroverov, T. A. Keith, R. Kobayashi, J. Normand, 
 K. Raghavachari, A. P. Rendell, J. C. Burant, S. S. Iyengar, 
 J. Tomasi, M. Cossi, J. M. Millam, M. Klene, C. Adamo, R. Cammi, 
 J. W. Ochterski, R. L. Martin, K. Morokuma, O. Farkas, 
 J. B. Foresman, and D. J. Fox, Gaussian, Inc., Wallingford CT, 2019.
 
 ************************************************
 Gaussian 16:  Fujitsu-Arm-G16RevC.01  3-Jul-2019
                   27-Sep-2023 
 ************************************************
 %mem=24GB
 %nproc=42
 Will use up to   42 processors via shared memory.
 -------------------------------------------------------------
 #P TEST b3lyp/6-311G** EmpiricalDispersion=GD3 counterpoise=2
 -------------------------------------------------------------
 1/38=1,62=2,172=1/1;
 2/12=2,17=6,18=5,40=1/2;
 1/38=1,53=2,62=2,63=1/22;
 3/5=4,6=6,7=101,11=2,25=1,30=1,74=-5,124=31/1,2,3;
 4//1;
 5/5=2,38=5/2;
 6/7=2,8=2,9=2,10=2,28=1/1;
 1/53=2,62=2,63=1/22;
 3/5=7,6=11,7=101,11=2,25=1,30=1,74=-5,82=7,124=31/1,2,3;
 4//1;
 5/5=2,38=5/2;
 6/7=2,8=2,9=2,10=2,28=1/1;
 1/53=2,62=2,63=1/22(-4);
 99/5=1,9=1/99;
 Leave Link    1 at Wed Sep 27 16:57:49 2023, MaxMem=  3221225472 cpu:               7.3 elap:               0.2
 (Enter /home/center/opt/aarch64/apps/gaussian16/c01/g16/l101.exe)
 ----------------------------
 pentacene_A1=0_A2=0_A3=45_t1
 ----------------------------
 Symbolic Z-matrix:
 Charge =  0 Multiplicity = 1 in supermolecule
 Charge =  0 Multiplicity = 1 in fragment      1.
 Charge =  0 Multiplicity = 1 in fragment      2.
 C(Fragment=1)        -0.50395   0.52395  -3.66128 
 C(Fragment=1)         0.52395  -0.50395  -3.66128 
 C(Fragment=1)        -0.98612   1.00612  -4.92359 
 C(Fragment=1)         1.00613  -0.98613  -4.92359 
 C(Fragment=1)        -0.49632   0.51632  -6.09636 
 C(Fragment=1)         0.51632  -0.49632  -6.09636 
 C(Fragment=1)        -0.98447   1.00447  -2.45332 
 C(Fragment=1)        -0.50449   0.52449  -1.21403 
 C(Fragment=1)         1.00447  -0.98447  -2.45332 
 C(Fragment=1)         0.52449  -0.50449  -1.21403 
 H(Fragment=1)        -1.75336   1.77336  -4.92326 
 H(Fragment=1)        -1.75219   1.77219  -2.45393 
 H(Fragment=1)         1.77219  -1.75219  -2.45393 
 H(Fragment=1)         1.77336  -1.75336  -4.92326 
 H(Fragment=1)         0.89056  -0.87056  -7.04253 
 H(Fragment=1)        -0.87056   0.89056  -7.04253 
 C(Fragment=1)        -0.98482   1.00482   0.01 
 C(Fragment=1)        -0.50449   0.52449   1.23403 
 C(Fragment=1)         1.00482  -0.98482   0.01 
 C(Fragment=1)         0.52449  -0.50449   1.23403 
 H(Fragment=1)        -1.75247   1.77247   0.01 
 H(Fragment=1)         1.77247  -1.75247   0.01 
 C(Fragment=1)        -0.98447   1.00447   2.47332 
 C(Fragment=1)        -0.50395   0.52395   3.68128 
 C(Fragment=1)         1.00447  -0.98447   2.47332 
 C(Fragment=1)         0.52395  -0.50395   3.68128 
 H(Fragment=1)        -1.75219   1.77219   2.47393 
 H(Fragment=1)         1.77219  -1.75219   2.47393 
 C(Fragment=1)        -0.98612   1.00612   4.94359 
 C(Fragment=1)        -0.49632   0.51632   6.11636 
 C(Fragment=1)         1.00612  -0.98612   4.94359 
 C(Fragment=1)         0.51632  -0.49632   6.11636 
 H(Fragment=1)        -1.75336   1.77336   4.94326 
 H(Fragment=1)        -0.87056   0.89056   7.06253 
 H(Fragment=1)         0.89056  -0.87056   7.06253 
 H(Fragment=1)         1.77336  -1.75336   4.94326 
 C(Fragment=2)         5.27395   2.77395  -3.66128 
 C(Fragment=2)         4.24605   1.74605  -3.66128 
 C(Fragment=2)         5.75612   3.25612  -4.92359 
 C(Fragment=2)         3.76387   1.26387  -4.92359 
 C(Fragment=2)         5.26632   2.76632  -6.09636 
 C(Fragment=2)         4.25368   1.75368  -6.09636 
 C(Fragment=2)         5.75447   3.25447  -2.45332 
 C(Fragment=2)         5.27449   2.77449  -1.21403 
 C(Fragment=2)         3.76553   1.26553  -2.45332 
 C(Fragment=2)         4.24551   1.74551  -1.21403 
 H(Fragment=2)         6.52336   4.02336  -4.92326 
 H(Fragment=2)         6.52219   4.02219  -2.45393 
 H(Fragment=2)         2.99781   0.49781  -2.45393 
 H(Fragment=2)         2.99664   0.49664  -4.92326 
 H(Fragment=2)         3.87944   1.37944  -7.04253 
 H(Fragment=2)         5.64056   3.14056  -7.04253 
 C(Fragment=2)         5.75482   3.25482   0.01 
 C(Fragment=2)         5.27449   2.77449   1.23403 
 C(Fragment=2)         3.76518   1.26518   0.01 
 C(Fragment=2)         4.24551   1.74551   1.23403 
 H(Fragment=2)         6.52247   4.02247   0.01 
 H(Fragment=2)         2.99753   0.49753   0.01 
 C(Fragment=2)         5.75447   3.25447   2.47332 
 C(Fragment=2)         5.27395   2.77395   3.68128 
 C(Fragment=2)         3.76553   1.26553   2.47332 
 C(Fragment=2)         4.24605   1.74605   3.68128 
 H(Fragment=2)         6.52219   4.02219   2.47393 
 H(Fragment=2)         2.99781   0.49781   2.47393 
 C(Fragment=2)         5.75612   3.25612   4.94359 
 C(Fragment=2)         5.26632   2.76632   6.11636 
 C(Fragment=2)         3.76388   1.26388   4.94359 
 C(Fragment=2)         4.25368   1.75368   6.11636 
 H(Fragment=2)         6.52336   4.02336   4.94326 
 H(Fragment=2)         5.64056   3.14056   7.06253 
 H(Fragment=2)         3.87944   1.37944   7.06253 
 H(Fragment=2)         2.99664   0.49664   4.94326 
 
 ITRead=  0  0  0  0  0  0  0  0  0  0  0  0  0  0  0  0  0  0  0  0
 ITRead=  0  0  0  0  0  0  0  0  0  0  0  0  0  0  0  0  0  0  0  0
 ITRead=  0  0  0  0  0  0  0  0  0  0  0  0  0  0  0  0  0  0  0  0
 ITRead=  0  0  0  0  0  0  0  0  0  0  0  0
 MicOpt= -1 -1 -1 -1 -1 -1 -1 -1 -1 -1 -1 -1 -1 -1 -1 -1 -1 -1 -1 -1
 MicOpt= -1 -1 -1 -1 -1 -1 -1 -1 -1 -1 -1 -1 -1 -1 -1 -1 -1 -1 -1 -1
 MicOpt= -1 -1 -1 -1 -1 -1 -1 -1 -1 -1 -1 -1 -1 -1 -1 -1 -1 -1 -1 -1
 MicOpt= -1 -1 -1 -1 -1 -1 -1 -1 -1 -1 -1 -1
 NAtoms=     72 NQM=       72 NQMF=       0 NMMI=      0 NMMIF=      0
                NMic=       0 NMicF=      0.
                    Isotopes and Nuclear Properties:
 (Nuclear quadrupole moments (NQMom) in fm**2, nuclear magnetic moments (NMagM)
  in nuclear magnetons)

  Atom         1           2           3           4           5           6           7           8           9          10
 IAtWgt=          12          12          12          12          12          12          12          12          12          12
 AtmWgt=  12.0000000  12.0000000  12.0000000  12.0000000  12.0000000  12.0000000  12.0000000  12.0000000  12.0000000  12.0000000
 NucSpn=           0           0           0           0           0           0           0           0           0           0
 AtZEff=   0.0000000   0.0000000   0.0000000   0.0000000   0.0000000   0.0000000   0.0000000   0.0000000   0.0000000   0.0000000
 NQMom=    0.0000000   0.0000000   0.0000000   0.0000000   0.0000000   0.0000000   0.0000000   0.0000000   0.0000000   0.0000000
 NMagM=    0.0000000   0.0000000   0.0000000   0.0000000   0.0000000   0.0000000   0.0000000   0.0000000   0.0000000   0.0000000
 AtZNuc=   6.0000000   6.0000000   6.0000000   6.0000000   6.0000000   6.0000000   6.0000000   6.0000000   6.0000000   6.0000000

  Atom        11          12          13          14          15          16          17          18          19          20
 IAtWgt=           1           1           1           1           1           1          12          12          12          12
 AtmWgt=   1.0078250   1.0078250   1.0078250   1.0078250   1.0078250   1.0078250  12.0000000  12.0000000  12.0000000  12.0000000
 NucSpn=           1           1           1           1           1           1           0           0           0           0
 AtZEff=   0.0000000   0.0000000   0.0000000   0.0000000   0.0000000   0.0000000   0.0000000   0.0000000   0.0000000   0.0000000
 NQMom=    0.0000000   0.0000000   0.0000000   0.0000000   0.0000000   0.0000000   0.0000000   0.0000000   0.0000000   0.0000000
 NMagM=    2.7928460   2.7928460   2.7928460   2.7928460   2.7928460   2.7928460   0.0000000   0.0000000   0.0000000   0.0000000
 AtZNuc=   1.0000000   1.0000000   1.0000000   1.0000000   1.0000000   1.0000000   6.0000000   6.0000000   6.0000000   6.0000000

  Atom        21          22          23          24          25          26          27          28          29          30
 IAtWgt=           1           1          12          12          12          12           1           1          12          12
 AtmWgt=   1.0078250   1.0078250  12.0000000  12.0000000  12.0000000  12.0000000   1.0078250   1.0078250  12.0000000  12.0000000
 NucSpn=           1           1           0           0           0           0           1           1           0           0
 AtZEff=   0.0000000   0.0000000   0.0000000   0.0000000   0.0000000   0.0000000   0.0000000   0.0000000   0.0000000   0.0000000
 NQMom=    0.0000000   0.0000000   0.0000000   0.0000000   0.0000000   0.0000000   0.0000000   0.0000000   0.0000000   0.0000000
 NMagM=    2.7928460   2.7928460   0.0000000   0.0000000   0.0000000   0.0000000   2.7928460   2.7928460   0.0000000   0.0000000
 AtZNuc=   1.0000000   1.0000000   6.0000000   6.0000000   6.0000000   6.0000000   1.0000000   1.0000000   6.0000000   6.0000000

  Atom        31          32          33          34          35          36          37          38          39          40
 IAtWgt=          12          12           1           1           1           1          12          12          12          12
 AtmWgt=  12.0000000  12.0000000   1.0078250   1.0078250   1.0078250   1.0078250  12.0000000  12.0000000  12.0000000  12.0000000
 NucSpn=           0           0           1           1           1           1           0           0           0           0
 AtZEff=   0.0000000   0.0000000   0.0000000   0.0000000   0.0000000   0.0000000   0.0000000   0.0000000   0.0000000   0.0000000
 NQMom=    0.0000000   0.0000000   0.0000000   0.0000000   0.0000000   0.0000000   0.0000000   0.0000000   0.0000000   0.0000000
 NMagM=    0.0000000   0.0000000   2.7928460   2.7928460   2.7928460   2.7928460   0.0000000   0.0000000   0.0000000   0.0000000
 AtZNuc=   6.0000000   6.0000000   1.0000000   1.0000000   1.0000000   1.0000000   6.0000000   6.0000000   6.0000000   6.0000000

  Atom        41          42          43          44          45          46          47          48          49          50
 IAtWgt=          12          12          12          12          12          12           1           1           1           1
 AtmWgt=  12.0000000  12.0000000  12.0000000  12.0000000  12.0000000  12.0000000   1.0078250   1.0078250   1.0078250   1.0078250
 NucSpn=           0           0           0           0           0           0           1           1           1           1
 AtZEff=   0.0000000   0.0000000   0.0000000   0.0000000   0.0000000   0.0000000   0.0000000   0.0000000   0.0000000   0.0000000
 NQMom=    0.0000000   0.0000000   0.0000000   0.0000000   0.0000000   0.0000000   0.0000000   0.0000000   0.0000000   0.0000000
 NMagM=    0.0000000   0.0000000   0.0000000   0.0000000   0.0000000   0.0000000   2.7928460   2.7928460   2.7928460   2.7928460
 AtZNuc=   6.0000000   6.0000000   6.0000000   6.0000000   6.0000000   6.0000000   1.0000000   1.0000000   1.0000000   1.0000000

  Atom        51          52          53          54          55          56          57          58          59          60
 IAtWgt=           1           1          12          12          12          12           1           1          12          12
 AtmWgt=   1.0078250   1.0078250  12.0000000  12.0000000  12.0000000  12.0000000   1.0078250   1.0078250  12.0000000  12.0000000
 NucSpn=           1           1           0           0           0           0           1           1           0           0
 AtZEff=   0.0000000   0.0000000   0.0000000   0.0000000   0.0000000   0.0000000   0.0000000   0.0000000   0.0000000   0.0000000
 NQMom=    0.0000000   0.0000000   0.0000000   0.0000000   0.0000000   0.0000000   0.0000000   0.0000000   0.0000000   0.0000000
 NMagM=    2.7928460   2.7928460   0.0000000   0.0000000   0.0000000   0.0000000   2.7928460   2.7928460   0.0000000   0.0000000
 AtZNuc=   1.0000000   1.0000000   6.0000000   6.0000000   6.0000000   6.0000000   1.0000000   1.0000000   6.0000000   6.0000000

  Atom        61          62          63          64          65          66          67          68          69          70
 IAtWgt=          12          12           1           1          12          12          12          12           1           1
 AtmWgt=  12.0000000  12.0000000   1.0078250   1.0078250  12.0000000  12.0000000  12.0000000  12.0000000   1.0078250   1.0078250
 NucSpn=           0           0           1           1           0           0           0           0           1           1
 AtZEff=   0.0000000   0.0000000   0.0000000   0.0000000   0.0000000   0.0000000   0.0000000   0.0000000   0.0000000   0.0000000
 NQMom=    0.0000000   0.0000000   0.0000000   0.0000000   0.0000000   0.0000000   0.0000000   0.0000000   0.0000000   0.0000000
 NMagM=    0.0000000   0.0000000   2.7928460   2.7928460   0.0000000   0.0000000   0.0000000   0.0000000   2.7928460   2.7928460
 AtZNuc=   6.0000000   6.0000000   1.0000000   1.0000000   6.0000000   6.0000000   6.0000000   6.0000000   1.0000000   1.0000000

  Atom        71          72
 IAtWgt=           1           1
 AtmWgt=   1.0078250   1.0078250
 NucSpn=           1           1
 AtZEff=   0.0000000   0.0000000
 NQMom=    0.0000000   0.0000000
 NMagM=    2.7928460   2.7928460
 AtZNuc=   1.0000000   1.0000000
 Leave Link  101 at Wed Sep 27 16:57:51 2023, MaxMem=  3221225472 cpu:               2.5 elap:               0.1
 (Enter /home/center/opt/aarch64/apps/gaussian16/c01/g16/l202.exe)
 Stoichiometry    C44H28
 Framework group  CS[SG(C4H4),X(C40H24)]
 Deg. of freedom   109
 Full point group                 CS      NOp   2
 Largest Abelian subgroup         CS      NOp   2
 Largest concise Abelian subgroup CS      NOp   2
                         Standard orientation:                         
 ---------------------------------------------------------------------
 Center     Atomic      Atomic             Coordinates (Angstroms)
 Number     Number       Type             X           Y           Z
 ---------------------------------------------------------------------
      1          6           0        1.610716   -2.474874    3.671276
      2          6           0        0.157051   -2.474874    3.671276
      3          6           0        2.292617   -2.474874    4.933593
      4          6           0       -0.524850   -2.474874    4.933593
      5          6           0        1.599930   -2.474874    6.106357
      6          6           0        0.167837   -2.474874    6.106357
      7          6           0        2.290274   -2.474874    2.463318
      8          6           0        1.611480   -2.474874    1.224029
      9          6           0       -0.522507   -2.474874    2.463317
     10          6           0        0.156287   -2.474874    1.224029
     11          1           0        3.377645   -2.474874    4.933260
     12          1           0        3.375992   -2.474874    2.463929
     13          1           0       -1.608224   -2.474874    2.463929
     14          1           0       -1.609878   -2.474874    4.933260
     15          1           0       -0.361412   -2.474874    7.052528
     16          1           0        2.129178   -2.474874    7.052528
     17          6           0        2.290769   -2.474874    0.000000
     18          6           0        1.611480   -2.474874   -1.224029
     19          6           0       -0.523002   -2.474874    0.000000
     20          6           0        0.156287   -2.474874   -1.224029
     21          1           0        3.376392   -2.474874    0.000000
     22          1           0       -1.608624   -2.474874    0.000000
     23          6           0        2.290274   -2.474874   -2.463318
     24          6           0        1.610716   -2.474874   -3.671276
     25          6           0       -0.522507   -2.474874   -2.463317
     26          6           0        0.157051   -2.474874   -3.671276
     27          1           0        3.375992   -2.474874   -2.463929
     28          1           0       -1.608224   -2.474874   -2.463929
     29          6           0        2.292617   -2.474874   -4.933593
     30          6           0        1.599930   -2.474874   -6.106357
     31          6           0       -0.524850   -2.474874   -4.933593
     32          6           0        0.167837   -2.474874   -6.106357
     33          1           0        3.377645   -2.474874   -4.933260
     34          1           0        2.129178   -2.474874   -7.052528
     35          1           0       -0.361412   -2.474874   -7.052528
     36          1           0       -1.609878   -2.474874   -4.933260
     37          6           0       -0.883883    3.201706    3.671276
     38          6           0       -0.883883    1.748042    3.671276
     39          6           0       -0.883883    3.883607    4.933593
     40          6           0       -0.883883    1.066140    4.933593
     41          6           0       -0.883883    3.190920    6.106357
     42          6           0       -0.883883    1.758827    6.106357
     43          6           0       -0.883883    3.881265    2.463318
     44          6           0       -0.883883    3.202470    1.224029
     45          6           0       -0.883883    1.068483    2.463317
     46          6           0       -0.883883    1.747277    1.224029
     47          1           0       -0.883883    4.968636    4.933260
     48          1           0       -0.883883    4.966982    2.463929
     49          1           0       -0.883883   -0.017233    2.463929
     50          1           0       -0.883883   -0.018888    4.933260
     51          1           0       -0.883883    1.229578    7.052528
     52          1           0       -0.883883    3.720169    7.052528
     53          6           0       -0.883883    3.881760    0.000000
     54          6           0       -0.883883    3.202470   -1.224029
     55          6           0       -0.883883    1.067988    0.000000
     56          6           0       -0.883883    1.747277   -1.224029
     57          1           0       -0.883883    4.967383    0.000000
     58          1           0       -0.883883   -0.017634    0.000000
     59          6           0       -0.883883    3.881265   -2.463318
     60          6           0       -0.883883    3.201706   -3.671276
     61          6           0       -0.883883    1.068483   -2.463317
     62          6           0       -0.883883    1.748042   -3.671276
     63          1           0       -0.883883    4.966982   -2.463929
     64          1           0       -0.883883   -0.017233   -2.463929
     65          6           0       -0.883883    3.883607   -4.933593
     66          6           0       -0.883883    3.190920   -6.106357
     67          6           0       -0.883883    1.066140   -4.933593
     68          6           0       -0.883883    1.758827   -6.106357
     69          1           0       -0.883883    4.968636   -4.933260
     70          1           0       -0.883883    3.720169   -7.052528
     71          1           0       -0.883883    1.229578   -7.052528
     72          1           0       -0.883883   -0.018888   -4.933260
 ---------------------------------------------------------------------
 Rotational constants (GHZ):           0.1097383           0.0563744           0.0394640
 Leave Link  202 at Wed Sep 27 16:57:53 2023, MaxMem=  3221225472 cpu:               0.6 elap:               0.0
 (Enter /home/center/opt/aarch64/apps/gaussian16/c01/g16/l122.exe)
 Counterpoise: doing full-system calculation.
 Leave Link  122 at Wed Sep 27 16:57:56 2023, MaxMem=  3221225472 cpu:               0.2 elap:               0.0
 (Enter /home/center/opt/aarch64/apps/gaussian16/c01/g16/l301.exe)
 Standard basis: 6-311G(d,p) (5D, 7F)
 Ernie: Thresh=  0.10000D-02 Tol=  0.10000D-05 Strict=F.
 There are   528 symmetry adapted cartesian basis functions of A'  symmetry.
 There are   476 symmetry adapted cartesian basis functions of A"  symmetry.
 There are   504 symmetry adapted basis functions of A'  symmetry.
 There are   456 symmetry adapted basis functions of A"  symmetry.
   960 basis functions,  1632 primitive gaussians,  1004 cartesian basis functions
   146 alpha electrons      146 beta electrons
       nuclear repulsion energy      4642.2775745015 Hartrees.
 IExCor=  402 DFT=T Ex+Corr=B3LYP ExCW=0 ScaHFX=  0.200000
 ScaDFX=  0.800000  0.720000  1.000000  0.810000 ScalE2=  1.000000  1.000000
 IRadAn=      5 IRanWt=     -1 IRanGd=            0 ICorTp=0 IEmpDi=131
 NAtoms=   72 NActive=   72 NUniq=   40 SFac= 3.24D+00 NAtFMM=   60 NAOKFM=T Big=F
 Integral buffers will be    131072 words long.
 Raffenetti 2 integral format.
 Two-electron integral symmetry is turned on.
 R6Disp:  Grimme-D3 Dispersion energy=       -0.0826326748 Hartrees.
 Nuclear repulsion after empirical dispersion term =     4642.1949418267 Hartrees.
 Leave Link  301 at Wed Sep 27 16:57:58 2023, MaxMem=  3221225472 cpu:               1.9 elap:               0.1
 (Enter /home/center/opt/aarch64/apps/gaussian16/c01/g16/l302.exe)
 NPDir=0 NMtPBC=     1 NCelOv=     1 NCel=       1 NClECP=     1 NCelD=      1
         NCelK=      1 NCelE2=     1 NClLst=     1 CellRange=     0.0.
 One-electron integrals computed using PRISM.
 One-electron integral symmetry used in STVInt
 NBasis=   960 RedAO= T EigKep=  3.71D-05  NBF=   504   456
 NBsUse=   960 1.00D-06 EigRej= -1.00D+00 NBFU=   504   456
 Precomputing XC quadrature grid using
 IXCGrd= 4 IRadAn=           5 IRanWt=          -1 IRanGd=           0 AccXCQ= 0.00D+00.
 Generated NRdTot=       0 NPtTot=           0 NUsed=           0 NTot=          32
 NSgBfM=   989   989   989   989   989 MxSgAt=    72 MxSgA2=    72.
 Leave Link  302 at Wed Sep 27 16:58:02 2023, MaxMem=  3221225472 cpu:              64.9 elap:               2.0
 (Enter /home/center/opt/aarch64/apps/gaussian16/c01/g16/l303.exe)
 DipDrv:  MaxL=1.
 Leave Link  303 at Wed Sep 27 16:58:05 2023, MaxMem=  3221225472 cpu:              13.8 elap:               0.5
 (Enter /home/center/opt/aarch64/apps/gaussian16/c01/g16/l401.exe)
 ExpMin= 1.03D-01 ExpMax= 4.56D+03 ExpMxC= 6.82D+02 IAcc=3 IRadAn=         5 AccDes= 0.00D+00
 Harris functional with IExCor=  402 and IRadAn=       5 diagonalized for initial guess.
 HarFok:  IExCor=  402 AccDes= 0.00D+00 IRadAn=         5 IDoV= 1 UseB2=F ITyADJ=14
 ICtDFT=  3500011 ScaDFX=  1.000000  1.000000  1.000000  1.000000
 FoFCou: FMM=F IPFlag=           0 FMFlag=      100000 FMFlg1=        2000
         NFxFlg=           0 DoJE=T BraDBF=F KetDBF=T FulRan=T
         wScrn=  0.000000 ICntrl=       500 IOpCl=  0 I1Cent=   200000004 NGrid=           0
         NMat0=    1 NMatS0=      1 NMatT0=    0 NMatD0=    1 NMtDS0=    0 NMtDT0=    0
 Petite list used in FoFCou.
 Harris En= -1694.13443992540    
 JPrj=0 DoOrth=F DoCkMO=F.
 Initial guess orbital symmetries:
       Occupied  (A") (A') (A") (A') (A") (A') (A') (A") (A") (A')
                 (A") (A') (A") (A') (A") (A') (A") (A') (A') (A")
                 (A') (A") (A') (A") (A') (A') (A') (A') (A") (A')
                 (A") (A') (A") (A') (A") (A') (A") (A') (A") (A')
                 (A") (A') (A') (A") (A') (A') (A") (A") (A') (A')
                 (A") (A") (A') (A') (A') (A') (A") (A") (A') (A')
                 (A") (A") (A") (A") (A') (A') (A') (A') (A") (A")
                 (A") (A") (A') (A') (A") (A') (A") (A') (A') (A')
                 (A') (A') (A") (A") (A") (A") (A') (A") (A") (A')
                 (A') (A') (A") (A") (A') (A') (A') (A") (A') (A")
                 (A') (A') (A") (A") (A") (A") (A') (A') (A') (A")
                 (A') (A") (A') (A') (A") (A") (A') (A') (A") (A")
                 (A") (A") (A') (A') (A') (A') (A") (A") (A') (A')
                 (A") (A") (A') (A') (A") (A") (A') (A') (A') (A')
                 (A") (A") (A") (A") (A') (A')
       Virtual   (A') (A') (A") (A") (A") (A") (A') (A') (A') (A')
                 (A") (A") (A') (A') (A") (A") (A') (A") (A') (A')
                 (A') (A') (A") (A') (A") (A') (A") (A") (A') (A')
                 (A") (A") (A') (A") (A") (A') (A") (A') (A') (A')
                 (A") (A") (A') (A') (A") (A') (A") (A') (A') (A')
                 (A') (A") (A') (A") (A') (A') (A") (A') (A") (A")
                 (A') (A") (A") (A") (A') (A') (A") (A") (A") (A')
                 (A') (A") (A') (A') (A") (A') (A") (A") (A') (A")
                 (A') (A') (A') (A") (A") (A') (A') (A') (A') (A")
                 (A') (A") (A") (A") (A') (A") (A') (A") (A') (A')
                 (A") (A') (A") (A") (A') (A") (A') (A') (A') (A")
                 (A') (A') (A") (A") (A') (A') (A') (A") (A') (A")
                 (A") (A') (A") (A') (A') (A") (A") (A") (A') (A")
                 (A') (A") (A') (A") (A") (A') (A') (A") (A') (A")
                 (A') (A') (A") (A') (A") (A') (A') (A') (A') (A')
                 (A") (A") (A") (A') (A") (A') (A') (A") (A") (A')
                 (A") (A') (A") (A') (A") (A') (A") (A") (A') (A')
                 (A") (A') (A') (A") (A") (A') (A") (A') (A') (A")
                 (A') (A') (A") (A') (A") (A') (A") (A') (A") (A')
                 (A") (A') (A') (A") (A") (A') (A") (A') (A') (A')
                 (A") (A") (A') (A") (A') (A") (A') (A') (A") (A')
                 (A") (A') (A") (A") (A") (A') (A') (A") (A") (A')
                 (A') (A") (A") (A') (A") (A') (A") (A') (A') (A")
                 (A') (A') (A') (A") (A") (A') (A') (A") (A") (A')
                 (A") (A') (A") (A') (A") (A") (A') (A') (A') (A")
                 (A") (A') (A') (A") (A") (A') (A') (A") (A') (A")
                 (A') (A') (A") (A") (A') (A") (A") (A') (A") (A')
                 (A") (A") (A') (A") (A') (A') (A") (A') (A") (A')
                 (A") (A') (A") (A') (A') (A") (A') (A') (A") (A")
                 (A') (A') (A") (A") (A') (A") (A") (A") (A') (A")
                 (A") (A') (A') (A') (A') (A") (A') (A') (A") (A')
                 (A") (A") (A') (A") (A") (A") (A') (A') (A') (A')
                 (A") (A') (A") (A') (A') (A") (A') (A") (A") (A')
                 (A") (A") (A') (A") (A') (A') (A") (A') (A") (A')
                 (A') (A") (A') (A") (A') (A") (A') (A") (A') (A")
                 (A') (A") (A') (A") (A') (A') (A') (A') (A") (A')
                 (A') (A") (A') (A") (A") (A') (A") (A") (A") (A")
                 (A") (A') (A') (A") (A") (A') (A") (A') (A') (A')
                 (A") (A') (A') (A') (A') (A") (A') (A") (A') (A")
                 (A') (A") (A') (A") (A') (A") (A") (A") (A') (A')
                 (A") (A') (A') (A") (A") (A') (A') (A") (A") (A')
                 (A") (A') (A') (A') (A') (A") (A') (A") (A") (A')
                 (A') (A') (A') (A") (A") (A") (A') (A') (A') (A")
                 (A") (A") (A") (A") (A') (A') (A") (A") (A') (A")
                 (A') (A") (A') (A") (A') (A") (A') (A") (A') (A")
                 (A') (A') (A') (A") (A") (A') (A") (A') (A') (A")
                 (A') (A") (A') (A") (A") (A") (A') (A') (A") (A')
                 (A") (A') (A") (A") (A') (A') (A") (A') (A") (A')
                 (A") (A') (A') (A") (A') (A") (A") (A') (A") (A')
                 (A") (A") (A') (A") (A") (A") (A") (A') (A') (A')
                 (A") (A") (A') (A') (A") (A') (A') (A') (A") (A")
                 (A') (A') (A') (A") (A') (A") (A") (A') (A") (A')
                 (A") (A") (A') (A') (A") (A") (A') (A') (A") (A')
                 (A') (A') (A") (A") (A") (A") (A') (A') (A") (A')
                 (A") (A") (A') (A') (A') (A") (A") (A") (A') (A")
                 (A') (A") (A') (A') (A") (A") (A') (A") (A') (A')
                 (A") (A") (A') (A') (A') (A') (A") (A") (A') (A")
                 (A') (A") (A") (A') (A') (A") (A") (A') (A") (A')
                 (A') (A') (A") (A") (A') (A") (A') (A') (A") (A')
                 (A') (A') (A") (A') (A") (A') (A') (A") (A') (A")
                 (A') (A") (A') (A") (A") (A') (A") (A') (A") (A')
                 (A') (A") (A") (A') (A") (A') (A") (A') (A") (A')
                 (A") (A') (A") (A') (A") (A") (A') (A') (A') (A')
                 (A") (A') (A') (A") (A") (A') (A") (A") (A') (A")
                 (A") (A') (A") (A') (A") (A') (A') (A") (A') (A')
                 (A") (A') (A') (A") (A') (A") (A') (A') (A') (A")
                 (A') (A") (A") (A") (A') (A') (A") (A') (A") (A')
                 (A') (A") (A") (A') (A") (A') (A") (A") (A') (A')
                 (A") (A') (A') (A") (A') (A") (A") (A') (A") (A")
                 (A') (A') (A") (A') (A") (A') (A') (A") (A") (A')
                 (A") (A') (A') (A") (A') (A") (A') (A") (A') (A")
                 (A') (A") (A") (A") (A') (A') (A') (A") (A') (A")
                 (A') (A') (A") (A") (A') (A") (A') (A') (A') (A")
                 (A") (A') (A") (A') (A") (A') (A") (A') (A') (A')
                 (A") (A") (A') (A") (A') (A') (A") (A') (A') (A')
                 (A") (A') (A") (A") (A') (A") (A') (A') (A") (A")
                 (A") (A') (A") (A') (A") (A") (A') (A") (A') (A")
                 (A') (A') (A") (A") (A') (A') (A') (A') (A") (A")
                 (A") (A") (A') (A') (A") (A') (A") (A') (A') (A')
                 (A") (A") (A") (A") (A') (A') (A') (A') (A") (A")
                 (A') (A') (A") (A") (A') (A") (A') (A") (A') (A')
                 (A') (A") (A') (A")
 The electronic state of the initial guess is 1-A'.
 Leave Link  401 at Wed Sep 27 16:58:10 2023, MaxMem=  3221225472 cpu:             106.0 elap:               2.7
 (Enter /home/center/opt/aarch64/apps/gaussian16/c01/g16/l502.exe)
 Integral symmetry usage will be decided dynamically.
 Closed shell SCF:
 Using DIIS extrapolation, IDIIS=  1040.
 NGot=  3221225472 LenX=  3219153746 LenY=  3218144726
 Requested convergence on RMS density matrix=1.00D-08 within 128 cycles.
 Requested convergence on MAX density matrix=1.00D-06.
 Requested convergence on             energy=1.00D-06.
 No special actions if energy rises.
 Fock matrices will be formed incrementally for  20 cycles.
 Integral accuracy reduced to 1.0D-05 until final iterations.

 Cycle   1  Pass 0  IDiag  1:
 FoFJK:  IHMeth= 1 ICntrl=       0 DoSepK=F KAlg= 0 I1Cent=           0 FoldK=F
 IRaf= 560000000 NMat=       1 IRICut=       1 DoRegI=T DoRafI=F ISym2E= 1 IDoP0=0 IntGTp=1.
 FoFCou: FMM=F IPFlag=           0 FMFlag=      100000 FMFlg1=        2000
         NFxFlg=           0 DoJE=F BraDBF=F KetDBF=F FulRan=T
         wScrn=  0.000000 ICntrl=         0 IOpCl=  0 I1Cent=           0 NGrid=           0
         NMat0=    1 NMatS0=      1 NMatT0=    0 NMatD0=    1 NMtDS0=    0 NMtDT0=    0
 Petite list used in FoFCou.
 E= -1693.16979953553    
 DIIS: error= 4.45D-02 at cycle   1 NSaved=   1.
 NSaved= 1 IEnMin= 1 EnMin= -1693.16979953553     IErMin= 1 ErrMin= 4.45D-02
 ErrMax= 4.45D-02  0.00D+00 EMaxC= 1.00D-01 BMatC= 8.99D-01 BMatP= 8.99D-01
 IDIUse=3 WtCom= 5.55D-01 WtEn= 4.45D-01
 Coeff-Com:  0.100D+01
 Coeff-En:   0.100D+01
 Coeff:      0.100D+01
 Gap=     0.061 Goal=   None    Shift=    0.000
 GapD=    0.061 DampG=0.500 DampE=0.500 DampFc=0.2500 IDamp=-1.
 Damping current iteration by 2.50D-01
 RMSDP=1.73D-03 MaxDP=8.40D-02              OVMax= 1.57D-01

 Cycle   2  Pass 0  IDiag  1:
 RMSU=  4.19D-04    CP:  9.82D-01
 E= -1693.47824846233     Delta-E=       -0.308448926799 Rises=F Damp=T
 DIIS: error= 2.65D-02 at cycle   2 NSaved=   2.
 NSaved= 2 IEnMin= 2 EnMin= -1693.47824846233     IErMin= 2 ErrMin= 2.65D-02
 ErrMax= 2.65D-02  0.00D+00 EMaxC= 1.00D-01 BMatC= 2.99D-01 BMatP= 8.99D-01
 IDIUse=3 WtCom= 7.35D-01 WtEn= 2.65D-01
 Coeff-Com: -0.121D+01 0.221D+01
 Coeff-En:   0.000D+00 0.100D+01
 Coeff:     -0.889D+00 0.189D+01
 Gap=     0.062 Goal=   None    Shift=    0.000
 RMSDP=7.48D-04 MaxDP=3.36D-02 DE=-3.08D-01 OVMax= 9.29D-02

 Cycle   3  Pass 0  IDiag  1:
 RMSU=  5.05D-04    CP:  9.56D-01  2.26D+00
 E= -1694.04259172319     Delta-E=       -0.564343260861 Rises=F Damp=F
 DIIS: error= 4.78D-03 at cycle   3 NSaved=   3.
 NSaved= 3 IEnMin= 3 EnMin= -1694.04259172319     IErMin= 3 ErrMin= 4.78D-03
 ErrMax= 4.78D-03  0.00D+00 EMaxC= 1.00D-01 BMatC= 1.21D-02 BMatP= 2.99D-01
 IDIUse=3 WtCom= 9.52D-01 WtEn= 4.78D-02
 Coeff-Com: -0.255D+00 0.524D+00 0.730D+00
 Coeff-En:   0.000D+00 0.000D+00 0.100D+01
 Coeff:     -0.243D+00 0.499D+00 0.743D+00
 Gap=     0.067 Goal=   None    Shift=    0.000
 RMSDP=2.43D-04 MaxDP=1.34D-02 DE=-5.64D-01 OVMax= 9.62D-02

 Cycle   4  Pass 0  IDiag  1:
 RMSU=  2.05D-04    CP:  9.57D-01  2.17D+00  7.55D-01
 E= -1694.03860239629     Delta-E=        0.003989326902 Rises=F Damp=F
 DIIS: error= 6.95D-03 at cycle   4 NSaved=   4.
 NSaved= 4 IEnMin= 3 EnMin= -1694.04259172319     IErMin= 3 ErrMin= 4.78D-03
 ErrMax= 6.95D-03  0.00D+00 EMaxC= 1.00D-01 BMatC= 1.39D-02 BMatP= 1.21D-02
 IDIUse=3 WtCom= 1.07D-01 WtEn= 8.93D-01
 Coeff-Com: -0.414D-01 0.113D+00 0.521D+00 0.407D+00
 Coeff-En:   0.000D+00 0.000D+00 0.557D+00 0.443D+00
 Coeff:     -0.443D-02 0.121D-01 0.553D+00 0.439D+00
 Gap=     0.064 Goal=   None    Shift=    0.000
 RMSDP=1.46D-04 MaxDP=9.24D-03 DE= 3.99D-03 OVMax= 7.83D-02

 Cycle   5  Pass 0  IDiag  1:
 RMSU=  7.97D-05    CP:  9.57D-01  2.16D+00  8.17D-01  4.22D-01
 E= -1694.05399746254     Delta-E=       -0.015395066243 Rises=F Damp=F
 DIIS: error= 2.24D-03 at cycle   5 NSaved=   5.
 NSaved= 5 IEnMin= 5 EnMin= -1694.05399746254     IErMin= 5 ErrMin= 2.24D-03
 ErrMax= 2.24D-03  0.00D+00 EMaxC= 1.00D-01 BMatC= 1.08D-03 BMatP= 1.21D-02
 IDIUse=3 WtCom= 9.78D-01 WtEn= 2.24D-02
 Coeff-Com: -0.162D-01 0.346D-01 0.241D+00 0.248D+00 0.492D+00
 Coeff-En:   0.000D+00 0.000D+00 0.000D+00 0.367D-01 0.963D+00
 Coeff:     -0.159D-01 0.339D-01 0.236D+00 0.243D+00 0.503D+00
 Gap=     0.064 Goal=   None    Shift=    0.000
 RMSDP=4.75D-05 MaxDP=2.63D-03 DE=-1.54D-02 OVMax= 2.57D-02

 Cycle   6  Pass 0  IDiag  1:
 RMSU=  2.30D-05    CP:  9.57D-01  2.18D+00  8.25D-01  5.11D-01  5.45D-01
 E= -1694.05502052774     Delta-E=       -0.001023065208 Rises=F Damp=F
 DIIS: error= 1.01D-03 at cycle   6 NSaved=   6.
 NSaved= 6 IEnMin= 6 EnMin= -1694.05502052774     IErMin= 6 ErrMin= 1.01D-03
 ErrMax= 1.01D-03  0.00D+00 EMaxC= 1.00D-01 BMatC= 2.13D-04 BMatP= 1.08D-03
 IDIUse=3 WtCom= 9.90D-01 WtEn= 1.01D-02
 Coeff-Com: -0.483D-02 0.718D-02 0.964D-01 0.115D+00 0.352D+00 0.434D+00
 Coeff-En:   0.000D+00 0.000D+00 0.000D+00 0.000D+00 0.165D+00 0.835D+00
 Coeff:     -0.478D-02 0.711D-02 0.955D-01 0.114D+00 0.350D+00 0.438D+00
 Gap=     0.064 Goal=   None    Shift=    0.000
 RMSDP=1.79D-05 MaxDP=1.22D-03 DE=-1.02D-03 OVMax= 9.83D-03

 Cycle   7  Pass 0  IDiag  1:
 RMSU=  9.62D-06    CP:  9.57D-01  2.18D+00  8.27D-01  4.91D-01  6.09D-01
                    CP:  4.11D-01
 E= -1694.05525139723     Delta-E=       -0.000230869491 Rises=F Damp=F
 DIIS: error= 3.01D-04 at cycle   7 NSaved=   7.
 NSaved= 7 IEnMin= 7 EnMin= -1694.05525139723     IErMin= 7 ErrMin= 3.01D-04
 ErrMax= 3.01D-04  0.00D+00 EMaxC= 1.00D-01 BMatC= 1.77D-05 BMatP= 2.13D-04
 IDIUse=3 WtCom= 9.97D-01 WtEn= 3.01D-03
 Coeff-Com: -0.169D-02 0.193D-02 0.524D-01 0.634D-01 0.209D+00 0.300D+00
 Coeff-Com:  0.375D+00
 Coeff-En:   0.000D+00 0.000D+00 0.000D+00 0.000D+00 0.000D+00 0.283D-01
 Coeff-En:   0.972D+00
 Coeff:     -0.169D-02 0.192D-02 0.522D-01 0.632D-01 0.208D+00 0.299D+00
 Coeff:      0.377D+00
 Gap=     0.064 Goal=   None    Shift=    0.000
 RMSDP=5.64D-06 MaxDP=2.78D-04 DE=-2.31D-04 OVMax= 2.33D-03

 Initial convergence to 1.0D-05 achieved.  Increase integral accuracy.
 Cycle   8  Pass 1  IDiag  1:
 E= -1694.05488174844     Delta-E=        0.000369648790 Rises=F Damp=F
 DIIS: error= 1.20D-03 at cycle   1 NSaved=   1.
 NSaved= 1 IEnMin= 1 EnMin= -1694.05488174844     IErMin= 1 ErrMin= 1.20D-03
 ErrMax= 1.20D-03  0.00D+00 EMaxC= 1.00D-01 BMatC= 5.36D-05 BMatP= 5.36D-05
 IDIUse=3 WtCom= 9.88D-01 WtEn= 1.20D-02
 Coeff-Com:  0.100D+01
 Coeff-En:   0.100D+01
 Coeff:      0.100D+01
 Gap=     0.064 Goal=   None    Shift=    0.000
 RMSDP=5.64D-06 MaxDP=2.78D-04 DE= 3.70D-04 OVMax= 2.23D-03

 Cycle   9  Pass 1  IDiag  1:
 RMSU=  4.15D-04    CP:  9.96D-01
 E= -1694.05492982923     Delta-E=       -0.000048080786 Rises=F Damp=F
 DIIS: error= 1.78D-04 at cycle   2 NSaved=   2.
 NSaved= 2 IEnMin= 2 EnMin= -1694.05492982923     IErMin= 2 ErrMin= 1.78D-04
 ErrMax= 1.78D-04  0.00D+00 EMaxC= 1.00D-01 BMatC= 4.13D-06 BMatP= 5.36D-05
 IDIUse=3 WtCom= 9.98D-01 WtEn= 1.78D-03
 Coeff-Com:  0.901D-01 0.910D+00
 Coeff-En:   0.000D+00 0.100D+01
 Coeff:      0.899D-01 0.910D+00
 Gap=     0.064 Goal=   None    Shift=    0.000
 RMSDP=8.70D-06 MaxDP=5.41D-04 DE=-4.81D-05 OVMax= 4.67D-03

 Cycle  10  Pass 1  IDiag  1:
 RMSU=  7.41D-06    CP:  9.96D-01  1.01D+00
 E= -1694.05490718685     Delta-E=        0.000022642383 Rises=F Damp=F
 DIIS: error= 4.71D-04 at cycle   3 NSaved=   3.
 NSaved= 3 IEnMin= 2 EnMin= -1694.05492982923     IErMin= 2 ErrMin= 1.78D-04
 ErrMax= 4.71D-04  0.00D+00 EMaxC= 1.00D-01 BMatC= 2.21D-05 BMatP= 4.13D-06
 IDIUse=3 WtCom= 3.15D-01 WtEn= 6.85D-01
 Coeff-Com: -0.209D-02 0.701D+00 0.301D+00
 Coeff-En:   0.000D+00 0.780D+00 0.220D+00
 Coeff:     -0.659D-03 0.755D+00 0.246D+00
 Gap=     0.064 Goal=   None    Shift=    0.000
 RMSDP=4.39D-06 MaxDP=3.21D-04 DE= 2.26D-05 OVMax= 2.97D-03

 Cycle  11  Pass 1  IDiag  1:
 RMSU=  1.27D-06    CP:  9.96D-01  1.01D+00  4.34D-01
 E= -1694.05493375085     Delta-E=       -0.000026564000 Rises=F Damp=F
 DIIS: error= 5.53D-05 at cycle   4 NSaved=   4.
 NSaved= 4 IEnMin= 4 EnMin= -1694.05493375085     IErMin= 4 ErrMin= 5.53D-05
 ErrMax= 5.53D-05  0.00D+00 EMaxC= 1.00D-01 BMatC= 9.06D-07 BMatP= 4.13D-06
 IDIUse=1 WtCom= 1.00D+00 WtEn= 0.00D+00
 Coeff-Com: -0.382D-02 0.464D+00 0.125D+00 0.415D+00
 Coeff:     -0.382D-02 0.464D+00 0.125D+00 0.415D+00
 Gap=     0.064 Goal=   None    Shift=    0.000
 RMSDP=1.02D-06 MaxDP=5.87D-05 DE=-2.66D-05 OVMax= 4.04D-04

 Cycle  12  Pass 1  IDiag  1:
 RMSU=  4.86D-07    CP:  9.96D-01  1.01D+00  3.17D-01  8.37D-01
 E= -1694.05493476643     Delta-E=       -0.000001015580 Rises=F Damp=F
 DIIS: error= 8.62D-06 at cycle   5 NSaved=   5.
 NSaved= 5 IEnMin= 5 EnMin= -1694.05493476643     IErMin= 5 ErrMin= 8.62D-06
 ErrMax= 8.62D-06  0.00D+00 EMaxC= 1.00D-01 BMatC= 1.11D-08 BMatP= 9.06D-07
 IDIUse=1 WtCom= 1.00D+00 WtEn= 0.00D+00
 Coeff-Com: -0.250D-02 0.292D+00 0.755D-01 0.280D+00 0.355D+00
 Coeff:     -0.250D-02 0.292D+00 0.755D-01 0.280D+00 0.355D+00
 Gap=     0.064 Goal=   None    Shift=    0.000
 RMSDP=1.44D-07 MaxDP=8.99D-06 DE=-1.02D-06 OVMax= 8.64D-05

 Cycle  13  Pass 1  IDiag  1:
 RMSU=  1.18D-07    CP:  9.96D-01  1.01D+00  3.18D-01  8.60D-01  8.48D-01
 E= -1694.05493478001     Delta-E=       -0.000000013581 Rises=F Damp=F
 DIIS: error= 2.21D-06 at cycle   6 NSaved=   6.
 NSaved= 6 IEnMin= 6 EnMin= -1694.05493478001     IErMin= 6 ErrMin= 2.21D-06
 ErrMax= 2.21D-06  0.00D+00 EMaxC= 1.00D-01 BMatC= 6.37D-10 BMatP= 1.11D-08
 IDIUse=1 WtCom= 1.00D+00 WtEn= 0.00D+00
 Coeff-Com: -0.963D-03 0.109D+00 0.278D-01 0.110D+00 0.216D+00 0.539D+00
 Coeff:     -0.963D-03 0.109D+00 0.278D-01 0.110D+00 0.216D+00 0.539D+00
 Gap=     0.064 Goal=   None    Shift=    0.000
 RMSDP=3.67D-08 MaxDP=2.75D-06 DE=-1.36D-08 OVMax= 2.34D-05

 Cycle  14  Pass 1  IDiag  1:
 RMSU=  3.21D-08    CP:  9.96D-01  1.01D+00  3.19D-01  8.59D-01  8.64D-01
                    CP:  8.97D-01
 E= -1694.05493478058     Delta-E=       -0.000000000568 Rises=F Damp=F
 DIIS: error= 7.87D-07 at cycle   7 NSaved=   7.
 NSaved= 7 IEnMin= 7 EnMin= -1694.05493478058     IErMin= 7 ErrMin= 7.87D-07
 ErrMax= 7.87D-07  0.00D+00 EMaxC= 1.00D-01 BMatC= 1.08D-10 BMatP= 6.37D-10
 IDIUse=1 WtCom= 1.00D+00 WtEn= 0.00D+00
 Coeff-Com: -0.426D-03 0.477D-01 0.119D-01 0.494D-01 0.113D+00 0.345D+00
 Coeff-Com:  0.434D+00
 Coeff:     -0.426D-03 0.477D-01 0.119D-01 0.494D-01 0.113D+00 0.345D+00
 Coeff:      0.434D+00
 Gap=     0.064 Goal=   None    Shift=    0.000
 RMSDP=1.65D-08 MaxDP=1.15D-06 DE=-5.68D-10 OVMax= 9.44D-06

 Cycle  15  Pass 1  IDiag  1:
 RMSU=  1.07D-08    CP:  9.96D-01  1.01D+00  3.19D-01  8.61D-01  8.65D-01
                    CP:  9.22D-01  6.37D-01
 E= -1694.05493478068     Delta-E=       -0.000000000106 Rises=F Damp=F
 DIIS: error= 2.85D-07 at cycle   8 NSaved=   8.
 NSaved= 8 IEnMin= 8 EnMin= -1694.05493478068     IErMin= 8 ErrMin= 2.85D-07
 ErrMax= 2.85D-07  0.00D+00 EMaxC= 1.00D-01 BMatC= 2.20D-11 BMatP= 1.08D-10
 IDIUse=1 WtCom= 1.00D+00 WtEn= 0.00D+00
 Coeff-Com: -0.879D-05 0.522D-03-0.295D-03 0.216D-02 0.184D-01 0.816D-01
 Coeff-Com:  0.316D+00 0.581D+00
 Coeff:     -0.879D-05 0.522D-03-0.295D-03 0.216D-02 0.184D-01 0.816D-01
 Coeff:      0.316D+00 0.581D+00
 Gap=     0.064 Goal=   None    Shift=    0.000
 RMSDP=6.28D-09 MaxDP=2.90D-07 DE=-1.06D-10 OVMax= 2.26D-06

 SCF Done:  E(RB3LYP) =  -1694.05493478     A.U. after   15 cycles
            NFock= 15  Conv=0.63D-08     -V/T= 2.0043
 KE= 1.686746817102D+03 PE=-1.321494768588D+04 EE= 5.191950992174D+03
 Leave Link  502 at Wed Sep 27 16:59:58 2023, MaxMem=  3221225472 cpu:            3844.8 elap:             106.2
 (Enter /home/center/opt/aarch64/apps/gaussian16/c01/g16/l601.exe)
 Copying SCF densities to generalized density rwf, IOpCl= 0 IROHF=0.

 **********************************************************************

            Population analysis using the SCF Density.

 **********************************************************************

 Orbital symmetries:
       Occupied  (A") (A') (A') (A") (A") (A') (A") (A') (A') (A")
                 (A') (A') (A") (A') (A") (A') (A") (A') (A") (A')
                 (A") (A') (A") (A') (A") (A') (A') (A") (A') (A")
                 (A") (A') (A") (A') (A') (A") (A') (A") (A') (A')
                 (A") (A') (A") (A') (A') (A") (A') (A") (A') (A')
                 (A") (A") (A') (A') (A") (A') (A') (A") (A') (A')
                 (A") (A") (A") (A") (A') (A') (A') (A') (A") (A")
                 (A') (A") (A") (A") (A') (A') (A") (A') (A') (A')
                 (A') (A") (A") (A') (A") (A") (A') (A") (A') (A')
                 (A") (A') (A") (A') (A") (A') (A") (A') (A") (A')
                 (A") (A') (A') (A') (A') (A') (A") (A") (A") (A')
                 (A') (A') (A") (A") (A") (A") (A") (A') (A") (A')
                 (A') (A') (A') (A") (A') (A") (A') (A") (A") (A')
                 (A") (A") (A') (A') (A") (A') (A") (A') (A') (A')
                 (A") (A") (A") (A") (A') (A')
       Virtual   (A') (A') (A") (A") (A") (A") (A') (A') (A') (A")
                 (A') (A') (A") (A') (A") (A') (A') (A') (A") (A")
                 (A') (A') (A") (A") (A') (A") (A') (A") (A") (A')
                 (A") (A') (A") (A') (A') (A') (A") (A") (A") (A')
                 (A') (A') (A') (A") (A') (A") (A") (A') (A") (A")
                 (A') (A') (A') (A') (A") (A') (A') (A') (A") (A')
                 (A") (A") (A") (A") (A') (A') (A") (A') (A") (A")
                 (A') (A') (A") (A') (A") (A') (A") (A') (A") (A")
                 (A') (A') (A') (A') (A") (A') (A') (A") (A') (A")
                 (A") (A') (A') (A') (A") (A") (A") (A') (A') (A")
                 (A') (A') (A") (A") (A") (A') (A') (A") (A') (A")
                 (A") (A") (A') (A') (A') (A") (A") (A") (A') (A')
                 (A') (A") (A') (A') (A') (A') (A') (A") (A") (A")
                 (A') (A') (A') (A") (A") (A') (A') (A') (A") (A')
                 (A") (A') (A") (A') (A") (A") (A") (A') (A") (A")
                 (A') (A") (A') (A") (A') (A") (A') (A') (A') (A')
                 (A") (A") (A") (A') (A') (A') (A") (A") (A") (A')
                 (A') (A') (A") (A') (A") (A') (A") (A") (A') (A')
                 (A") (A') (A") (A') (A") (A") (A') (A') (A") (A')
                 (A") (A') (A") (A') (A') (A') (A") (A") (A") (A')
                 (A") (A') (A") (A') (A') (A") (A') (A') (A") (A')
                 (A') (A") (A") (A") (A') (A') (A') (A") (A") (A')
                 (A") (A") (A") (A') (A") (A') (A') (A') (A") (A')
                 (A') (A") (A") (A') (A") (A') (A') (A") (A") (A')
                 (A') (A") (A') (A") (A') (A") (A') (A") (A") (A')
                 (A") (A') (A") (A') (A') (A") (A") (A') (A") (A')
                 (A') (A") (A") (A') (A') (A') (A") (A') (A") (A")
                 (A') (A") (A") (A') (A') (A") (A') (A") (A") (A')
                 (A") (A') (A') (A") (A') (A') (A") (A') (A") (A")
                 (A') (A") (A') (A") (A") (A') (A") (A") (A') (A')
                 (A') (A") (A') (A") (A") (A') (A") (A') (A') (A")
                 (A') (A") (A') (A') (A") (A') (A") (A') (A") (A')
                 (A") (A") (A') (A') (A') (A") (A') (A") (A") (A")
                 (A') (A") (A') (A") (A') (A") (A') (A") (A') (A')
                 (A') (A") (A') (A') (A") (A') (A") (A') (A") (A")
                 (A') (A") (A') (A") (A') (A') (A') (A') (A") (A')
                 (A') (A") (A") (A") (A') (A') (A") (A") (A") (A")
                 (A') (A") (A") (A') (A') (A") (A') (A") (A') (A")
                 (A') (A') (A') (A") (A") (A') (A') (A') (A') (A")
                 (A') (A") (A') (A") (A') (A") (A") (A') (A") (A')
                 (A") (A') (A") (A') (A') (A") (A') (A") (A") (A')
                 (A") (A') (A') (A") (A') (A') (A") (A') (A") (A')
                 (A') (A') (A") (A') (A") (A') (A') (A") (A") (A")
                 (A') (A") (A") (A') (A") (A') (A") (A') (A") (A')
                 (A') (A") (A") (A') (A") (A") (A') (A") (A') (A')
                 (A") (A') (A") (A') (A") (A') (A") (A') (A") (A')
                 (A") (A") (A') (A') (A") (A') (A") (A') (A') (A')
                 (A") (A") (A") (A") (A') (A') (A") (A') (A") (A')
                 (A") (A") (A') (A') (A') (A") (A') (A") (A") (A')
                 (A") (A") (A") (A') (A") (A") (A") (A') (A") (A')
                 (A') (A") (A') (A') (A') (A") (A') (A') (A") (A')
                 (A") (A') (A") (A') (A") (A') (A') (A") (A") (A')
                 (A") (A') (A") (A") (A') (A') (A') (A") (A") (A")
                 (A') (A") (A') (A") (A') (A") (A") (A') (A') (A')
                 (A") (A') (A") (A') (A") (A') (A") (A") (A') (A")
                 (A') (A") (A") (A') (A') (A") (A') (A') (A") (A")
                 (A') (A') (A') (A") (A") (A') (A") (A') (A") (A')
                 (A") (A') (A') (A') (A') (A") (A') (A") (A') (A")
                 (A") (A') (A") (A') (A") (A') (A") (A") (A') (A")
                 (A") (A') (A") (A') (A') (A') (A") (A') (A') (A")
                 (A') (A') (A") (A") (A') (A') (A") (A') (A") (A')
                 (A") (A') (A') (A") (A') (A') (A") (A") (A') (A')
                 (A") (A") (A") (A') (A") (A') (A") (A') (A") (A')
                 (A') (A') (A") (A') (A") (A') (A') (A") (A") (A')
                 (A") (A") (A') (A") (A') (A") (A') (A') (A") (A')
                 (A') (A") (A') (A') (A") (A") (A') (A') (A') (A")
                 (A") (A") (A') (A") (A') (A") (A') (A') (A") (A')
                 (A') (A") (A") (A') (A") (A') (A") (A") (A') (A')
                 (A') (A') (A") (A") (A') (A") (A') (A") (A") (A")
                 (A') (A') (A") (A') (A') (A') (A") (A") (A") (A')
                 (A') (A') (A") (A") (A') (A") (A') (A") (A") (A')
                 (A') (A") (A") (A") (A') (A') (A') (A") (A') (A")
                 (A') (A') (A") (A') (A") (A') (A') (A") (A") (A')
                 (A') (A") (A') (A") (A") (A') (A') (A") (A') (A")
                 (A') (A") (A') (A") (A') (A') (A") (A') (A') (A')
                 (A") (A') (A") (A") (A') (A") (A') (A') (A") (A")
                 (A") (A') (A") (A") (A') (A') (A") (A") (A') (A")
                 (A') (A') (A") (A") (A') (A') (A') (A') (A") (A")
                 (A") (A") (A') (A') (A") (A') (A') (A") (A') (A')
                 (A") (A") (A") (A") (A') (A') (A") (A') (A') (A")
                 (A') (A") (A') (A') (A") (A") (A') (A') (A") (A')
                 (A') (A") (A') (A")
 The electronic state is 1-A'.
 Alpha  occ. eigenvalues --  -10.19665 -10.19665 -10.19599 -10.19598 -10.19580
 Alpha  occ. eigenvalues --  -10.19580 -10.19477 -10.19477 -10.18725 -10.18653
 Alpha  occ. eigenvalues --  -10.18653 -10.18616 -10.18587 -10.18587 -10.18581
 Alpha  occ. eigenvalues --  -10.18581 -10.18490 -10.18490 -10.18475 -10.18475
 Alpha  occ. eigenvalues --  -10.18366 -10.18366 -10.17986 -10.17986 -10.17944
 Alpha  occ. eigenvalues --  -10.17944 -10.17887 -10.17887 -10.17817 -10.17817
 Alpha  occ. eigenvalues --  -10.17088 -10.17088 -10.17013 -10.17013 -10.16998
 Alpha  occ. eigenvalues --  -10.16994 -10.16994 -10.16924 -10.16924 -10.16797
 Alpha  occ. eigenvalues --  -10.16765 -10.16765 -10.16712 -10.16712  -0.90072
 Alpha  occ. eigenvalues --   -0.88577  -0.88387  -0.86941  -0.86251  -0.84638
 Alpha  occ. eigenvalues --   -0.83111  -0.81512  -0.80569  -0.79213  -0.79042
 Alpha  occ. eigenvalues --   -0.78843  -0.77622  -0.77366  -0.76708  -0.75055
 Alpha  occ. eigenvalues --   -0.74940  -0.73614  -0.73348  -0.71972  -0.69916
 Alpha  occ. eigenvalues --   -0.68272  -0.68022  -0.66431  -0.63426  -0.63050
 Alpha  occ. eigenvalues --   -0.61838  -0.61808  -0.61474  -0.60678  -0.60125
 Alpha  occ. eigenvalues --   -0.59999  -0.58999  -0.58378  -0.58358  -0.56786
 Alpha  occ. eigenvalues --   -0.53386  -0.53261  -0.52974  -0.51814  -0.51642
 Alpha  occ. eigenvalues --   -0.51398  -0.50341  -0.49177  -0.48726  -0.47833
 Alpha  occ. eigenvalues --   -0.47641  -0.46826  -0.46283  -0.46280  -0.46154
 Alpha  occ. eigenvalues --   -0.45411  -0.44809  -0.44596  -0.44565  -0.43842
 Alpha  occ. eigenvalues --   -0.43247  -0.43050  -0.42510  -0.42382  -0.42237
 Alpha  occ. eigenvalues --   -0.41883  -0.41707  -0.41385  -0.41063  -0.40865
 Alpha  occ. eigenvalues --   -0.40647  -0.40455  -0.40227  -0.39746  -0.39498
 Alpha  occ. eigenvalues --   -0.38853  -0.38679  -0.37455  -0.37348  -0.36987
 Alpha  occ. eigenvalues --   -0.36210  -0.35847  -0.35483  -0.34778  -0.34519
 Alpha  occ. eigenvalues --   -0.34464  -0.33736  -0.33494  -0.33169  -0.33126
 Alpha  occ. eigenvalues --   -0.33044  -0.32056  -0.31073  -0.30668  -0.30005
 Alpha  occ. eigenvalues --   -0.29070  -0.28752  -0.27545  -0.27213  -0.25721
 Alpha  occ. eigenvalues --   -0.25079  -0.23486  -0.23263  -0.21681  -0.18606
 Alpha  occ. eigenvalues --   -0.16930
 Alpha virt. eigenvalues --   -0.10534  -0.08835  -0.05239  -0.03578  -0.03530
 Alpha virt. eigenvalues --   -0.01874  -0.00978   0.00725   0.01287   0.01377
 Alpha virt. eigenvalues --    0.01983   0.02922   0.03182   0.03673   0.03964
 Alpha virt. eigenvalues --    0.04010   0.04717   0.05552   0.05635   0.06043
 Alpha virt. eigenvalues --    0.06174   0.06748   0.07237   0.07527   0.07741
 Alpha virt. eigenvalues --    0.08196   0.08774   0.09151   0.09438   0.09761
 Alpha virt. eigenvalues --    0.10723   0.10906   0.11348   0.11976   0.12584
 Alpha virt. eigenvalues --    0.13099   0.13155   0.13200   0.13622   0.14099
 Alpha virt. eigenvalues --    0.14965   0.15595   0.16211   0.17002   0.17662
 Alpha virt. eigenvalues --    0.17702   0.18065   0.18764   0.19121   0.19942
 Alpha virt. eigenvalues --    0.20515   0.20670   0.22205   0.22446   0.23755
 Alpha virt. eigenvalues --    0.23789   0.23999   0.24393   0.24961   0.25437
 Alpha virt. eigenvalues --    0.26111   0.26273   0.26800   0.27040   0.27484
 Alpha virt. eigenvalues --    0.27692   0.28128   0.28520   0.28611   0.28888
 Alpha virt. eigenvalues --    0.29011   0.29368   0.29821   0.30034   0.30199
 Alpha virt. eigenvalues --    0.30299   0.30608   0.31301   0.31334   0.32015
 Alpha virt. eigenvalues --    0.32742   0.34085   0.34279   0.34679   0.34976
 Alpha virt. eigenvalues --    0.35177   0.35665   0.35784   0.36260   0.36369
 Alpha virt. eigenvalues --    0.36718   0.37007   0.37377   0.37772   0.37817
 Alpha virt. eigenvalues --    0.37944   0.38260   0.38292   0.38698   0.38757
 Alpha virt. eigenvalues --    0.39209   0.39468   0.39502   0.39683   0.40359
 Alpha virt. eigenvalues --    0.40432   0.40443   0.40668   0.41027   0.41329
 Alpha virt. eigenvalues --    0.41618   0.41984   0.42124   0.42247   0.42350
 Alpha virt. eigenvalues --    0.42530   0.42862   0.43105   0.43127   0.43268
 Alpha virt. eigenvalues --    0.43354   0.44179   0.44642   0.44879   0.44974
 Alpha virt. eigenvalues --    0.45053   0.45580   0.45592   0.45642   0.45865
 Alpha virt. eigenvalues --    0.46011   0.46295   0.46631   0.46706   0.46732
 Alpha virt. eigenvalues --    0.46744   0.47012   0.47404   0.47483   0.48197
 Alpha virt. eigenvalues --    0.48565   0.48846   0.48936   0.49068   0.49234
 Alpha virt. eigenvalues --    0.49814   0.50253   0.50376   0.50518   0.50887
 Alpha virt. eigenvalues --    0.50988   0.51319   0.51932   0.52460   0.52521
 Alpha virt. eigenvalues --    0.53070   0.53392   0.53740   0.53907   0.55010
 Alpha virt. eigenvalues --    0.55368   0.56187   0.56997   0.57035   0.57177
 Alpha virt. eigenvalues --    0.57322   0.57585   0.58090   0.58670   0.58715
 Alpha virt. eigenvalues --    0.59230   0.59555   0.60065   0.60123   0.60618
 Alpha virt. eigenvalues --    0.60865   0.61309   0.61432   0.61679   0.61902
 Alpha virt. eigenvalues --    0.62033   0.62182   0.62647   0.62685   0.62897
 Alpha virt. eigenvalues --    0.63228   0.63351   0.63747   0.63770   0.64019
 Alpha virt. eigenvalues --    0.64099   0.64234   0.64759   0.65274   0.66070
 Alpha virt. eigenvalues --    0.66167   0.66224   0.66670   0.67116   0.67946
 Alpha virt. eigenvalues --    0.68503   0.68938   0.69311   0.70404   0.70805
 Alpha virt. eigenvalues --    0.71149   0.71367   0.72141   0.72191   0.72378
 Alpha virt. eigenvalues --    0.73127   0.73242   0.74151   0.74466   0.75038
 Alpha virt. eigenvalues --    0.75265   0.75959   0.76157   0.76200   0.77252
 Alpha virt. eigenvalues --    0.77288   0.78072   0.78372   0.78661   0.78735
 Alpha virt. eigenvalues --    0.79283   0.79861   0.79982   0.79994   0.80344
 Alpha virt. eigenvalues --    0.81064   0.81357   0.81920   0.82560   0.83145
 Alpha virt. eigenvalues --    0.83201   0.83490   0.83554   0.83859   0.84262
 Alpha virt. eigenvalues --    0.84615   0.84661   0.85571   0.85695   0.87069
 Alpha virt. eigenvalues --    0.87100   0.87977   0.88147   0.89537   0.89677
 Alpha virt. eigenvalues --    0.89691   0.90068   0.90316   0.91172   0.91383
 Alpha virt. eigenvalues --    0.91782   0.92344   0.92560   0.93909   0.94342
 Alpha virt. eigenvalues --    0.94839   0.95420   0.95614   0.95844   0.96150
 Alpha virt. eigenvalues --    0.96533   0.96698   0.96978   0.97835   0.98368
 Alpha virt. eigenvalues --    0.98544   0.99483   0.99831   0.99902   1.00687
 Alpha virt. eigenvalues --    1.00704   1.00875   1.01275   1.01787   1.02503
 Alpha virt. eigenvalues --    1.02830   1.02943   1.03551   1.03946   1.04109
 Alpha virt. eigenvalues --    1.04654   1.05087   1.05387   1.05541   1.05756
 Alpha virt. eigenvalues --    1.06376   1.06499   1.06660   1.06668   1.07129
 Alpha virt. eigenvalues --    1.07567   1.08391   1.08597   1.08649   1.08966
 Alpha virt. eigenvalues --    1.09628   1.09903   1.10494   1.10659   1.11062
 Alpha virt. eigenvalues --    1.11254   1.11649   1.12173   1.12785   1.13288
 Alpha virt. eigenvalues --    1.13331   1.14028   1.14196   1.14563   1.14900
 Alpha virt. eigenvalues --    1.15240   1.15424   1.16111   1.16589   1.17553
 Alpha virt. eigenvalues --    1.17926   1.18635   1.18836   1.19418   1.20787
 Alpha virt. eigenvalues --    1.21210   1.22395   1.23047   1.24518   1.24858
 Alpha virt. eigenvalues --    1.25039   1.25906   1.27814   1.28750   1.30497
 Alpha virt. eigenvalues --    1.31729   1.31910   1.32505   1.33133   1.34139
 Alpha virt. eigenvalues --    1.35354   1.35798   1.36811   1.37341   1.37889
 Alpha virt. eigenvalues --    1.39251   1.39552   1.40295   1.40755   1.41336
 Alpha virt. eigenvalues --    1.41356   1.41627   1.42028   1.42313   1.42469
 Alpha virt. eigenvalues --    1.42704   1.44023   1.44414   1.45173   1.45221
 Alpha virt. eigenvalues --    1.45868   1.46652   1.47292   1.47342   1.47381
 Alpha virt. eigenvalues --    1.47704   1.47994   1.48572   1.48892   1.49580
 Alpha virt. eigenvalues --    1.49685   1.50250   1.50391   1.50447   1.50711
 Alpha virt. eigenvalues --    1.51259   1.51564   1.51932   1.52428   1.53223
 Alpha virt. eigenvalues --    1.53375   1.54069   1.54806   1.54868   1.55237
 Alpha virt. eigenvalues --    1.55245   1.55408   1.55609   1.56036   1.56711
 Alpha virt. eigenvalues --    1.57143   1.57360   1.57836   1.58762   1.59395
 Alpha virt. eigenvalues --    1.59482   1.60228   1.61105   1.61246   1.61511
 Alpha virt. eigenvalues --    1.62754   1.63114   1.63205   1.63524   1.64552
 Alpha virt. eigenvalues --    1.64611   1.65074   1.67147   1.67791   1.67798
 Alpha virt. eigenvalues --    1.68755   1.69148   1.69773   1.70729   1.71082
 Alpha virt. eigenvalues --    1.71355   1.71478   1.71865   1.71897   1.72230
 Alpha virt. eigenvalues --    1.72420   1.73056   1.73868   1.73908   1.74056
 Alpha virt. eigenvalues --    1.74358   1.74955   1.75198   1.76186   1.76891
 Alpha virt. eigenvalues --    1.76929   1.78416   1.79160   1.79912   1.80103
 Alpha virt. eigenvalues --    1.80429   1.80530   1.80883   1.81415   1.81518
 Alpha virt. eigenvalues --    1.81978   1.82113   1.82582   1.83048   1.83183
 Alpha virt. eigenvalues --    1.83730   1.84707   1.85104   1.85450   1.85647
 Alpha virt. eigenvalues --    1.85991   1.86687   1.86994   1.87448   1.88075
 Alpha virt. eigenvalues --    1.88443   1.88554   1.88767   1.88798   1.88894
 Alpha virt. eigenvalues --    1.89258   1.89886   1.89896   1.90885   1.91046
 Alpha virt. eigenvalues --    1.91436   1.91486   1.91897   1.92224   1.92767
 Alpha virt. eigenvalues --    1.92808   1.93327   1.94002   1.94328   1.94404
 Alpha virt. eigenvalues --    1.94807   1.94885   1.95092   1.95314   1.95750
 Alpha virt. eigenvalues --    1.96821   1.96929   1.96972   1.97508   1.98343
 Alpha virt. eigenvalues --    1.99673   2.00115   2.00320   2.00733   2.00980
 Alpha virt. eigenvalues --    2.01567   2.02132   2.02781   2.03660   2.04498
 Alpha virt. eigenvalues --    2.05862   2.07480   2.07650   2.08762   2.08990
 Alpha virt. eigenvalues --    2.09271   2.09326   2.11196   2.11327   2.11794
 Alpha virt. eigenvalues --    2.12248   2.13080   2.13312   2.13744   2.15279
 Alpha virt. eigenvalues --    2.15469   2.16501   2.16620   2.17175   2.18118
 Alpha virt. eigenvalues --    2.18295   2.19649   2.20334   2.21802   2.22143
 Alpha virt. eigenvalues --    2.22637   2.22875   2.23194   2.23602   2.24124
 Alpha virt. eigenvalues --    2.24399   2.25821   2.26135   2.26556   2.26879
 Alpha virt. eigenvalues --    2.27434   2.27627   2.28063   2.28360   2.28799
 Alpha virt. eigenvalues --    2.29005   2.30637   2.30928   2.31778   2.32332
 Alpha virt. eigenvalues --    2.33946   2.35296   2.36230   2.36926   2.38728
 Alpha virt. eigenvalues --    2.39163   2.40238   2.40597   2.41331   2.41756
 Alpha virt. eigenvalues --    2.42673   2.43174   2.45225   2.45385   2.45588
 Alpha virt. eigenvalues --    2.46775   2.46784   2.47151   2.47479   2.49738
 Alpha virt. eigenvalues --    2.50783   2.50827   2.52210   2.53362   2.53817
 Alpha virt. eigenvalues --    2.54713   2.55231   2.55680   2.56232   2.56443
 Alpha virt. eigenvalues --    2.57797   2.58124   2.58577   2.58764   2.59534
 Alpha virt. eigenvalues --    2.59736   2.60664   2.60733   2.60938   2.61192
 Alpha virt. eigenvalues --    2.61405   2.62134   2.62276   2.63009   2.63103
 Alpha virt. eigenvalues --    2.64219   2.64426   2.64538   2.64549   2.64974
 Alpha virt. eigenvalues --    2.66126   2.66293   2.66360   2.66683   2.67141
 Alpha virt. eigenvalues --    2.67775   2.67853   2.68206   2.68352   2.68665
 Alpha virt. eigenvalues --    2.68985   2.69271   2.69407   2.70109   2.70278
 Alpha virt. eigenvalues --    2.70346   2.71239   2.71549   2.71846   2.72160
 Alpha virt. eigenvalues --    2.72435   2.72638   2.73634   2.74026   2.74070
 Alpha virt. eigenvalues --    2.74809   2.76160   2.76252   2.76310   2.77039
 Alpha virt. eigenvalues --    2.77133   2.77953   2.78393   2.78810   2.79302
 Alpha virt. eigenvalues --    2.79629   2.79795   2.80166   2.80916   2.81529
 Alpha virt. eigenvalues --    2.81807   2.82451   2.82701   2.83743   2.83870
 Alpha virt. eigenvalues --    2.84178   2.85900   2.86144   2.86404   2.86813
 Alpha virt. eigenvalues --    2.87111   2.88619   2.89030   2.89456   2.90479
 Alpha virt. eigenvalues --    2.90553   2.90756   2.91735   2.92413   2.92854
 Alpha virt. eigenvalues --    2.93321   2.93428   2.93805   2.95305   2.95383
 Alpha virt. eigenvalues --    2.96572   2.96770   2.97728   2.98342   2.98595
 Alpha virt. eigenvalues --    2.99231   3.00469   3.01038   3.04228   3.05148
 Alpha virt. eigenvalues --    3.06120   3.06697   3.07595   3.08275   3.08772
 Alpha virt. eigenvalues --    3.10208   3.10786   3.15802   3.16304   3.16406
 Alpha virt. eigenvalues --    3.17299   3.17994   3.18360   3.19838   3.20197
 Alpha virt. eigenvalues --    3.21651   3.22090   3.23252   3.25348   3.29699
 Alpha virt. eigenvalues --    3.29996   3.30984   3.31163   3.31883   3.33856
 Alpha virt. eigenvalues --    3.35710   3.35909   3.36483   3.36689   3.37375
 Alpha virt. eigenvalues --    3.37631   3.37696   3.38541   3.39524   3.39660
 Alpha virt. eigenvalues --    3.40558   3.41820   3.42126   3.43690   3.45369
 Alpha virt. eigenvalues --    3.45599   3.46246   3.47349   3.48628   3.48798
 Alpha virt. eigenvalues --    3.50420   3.51028   3.51162   3.51716   3.53481
 Alpha virt. eigenvalues --    3.55056   3.57538   3.58921   3.58990   3.60065
 Alpha virt. eigenvalues --    3.61804   3.62840   3.63222   3.63967   3.64044
 Alpha virt. eigenvalues --    3.64866   3.66309   3.66591   3.67813   3.68277
 Alpha virt. eigenvalues --    3.68844   3.68972   3.70225   3.70340   4.00252
 Alpha virt. eigenvalues --    4.00308   4.01290   4.01519   4.02402   4.02423
 Alpha virt. eigenvalues --    4.03063   4.03347   4.15770   4.16310   4.17600
 Alpha virt. eigenvalues --    4.19208   4.19816   4.20089   4.21487   4.22112
 Alpha virt. eigenvalues --    4.22425   4.24033   4.24497   4.25688   4.27943
 Alpha virt. eigenvalues --    4.29402   4.38026   4.41195   4.61994   4.64686
 Alpha virt. eigenvalues --    4.78546   4.79172   4.79939   4.80791   4.81173
 Alpha virt. eigenvalues --    4.81938   4.82319   4.82506   4.84768   4.85182
 Alpha virt. eigenvalues --   23.39506  23.42320  23.54969  23.57664  23.69579
 Alpha virt. eigenvalues --   23.71900  23.77656  23.79174  23.80683  23.81609
 Alpha virt. eigenvalues --   23.82427  23.83696  23.86328  23.87562  23.89228
 Alpha virt. eigenvalues --   23.89363  23.90548  23.90657  23.92305  23.94225
 Alpha virt. eigenvalues --   23.96962  23.98059  23.98677  23.99478  24.08669
 Alpha virt. eigenvalues --   24.09319  24.10008  24.10214  24.10990  24.11617
 Alpha virt. eigenvalues --   24.12019  24.13336  24.13561  24.13825  24.15047
 Alpha virt. eigenvalues --   24.15198  24.15220  24.15787  24.16697  24.16732
 Alpha virt. eigenvalues --   24.19898  24.19946  24.21562  24.21623
          Condensed to atoms (all electrons):
 Mulliken charges:
               1
     1  C   -0.048892
     2  C   -0.021230
     3  C   -0.049502
     4  C   -0.118807
     5  C   -0.084794
     6  C   -0.077145
     7  C   -0.001709
     8  C   -0.048103
     9  C   -0.099525
    10  C   -0.008532
    11  H    0.085113
    12  H    0.078211
    13  H    0.082255
    14  H    0.091685
    15  H    0.098685
    16  H    0.097434
    17  C   -0.006462
    18  C   -0.048103
    19  C   -0.102778
    20  C   -0.008532
    21  H    0.076909
    22  H    0.081094
    23  C   -0.001709
    24  C   -0.048892
    25  C   -0.099525
    26  C   -0.021230
    27  H    0.078211
    28  H    0.082255
    29  C   -0.049502
    30  C   -0.084794
    31  C   -0.118807
    32  C   -0.077145
    33  H    0.085113
    34  H    0.097434
    35  H    0.098685
    36  H    0.091685
    37  C   -0.017264
    38  C   -0.122671
    39  C   -0.063308
    40  C   -0.045188
    41  C   -0.086118
    42  C   -0.122097
    43  C   -0.031481
    44  C   -0.003654
    45  C   -0.008349
    46  C   -0.130311
    47  H    0.078413
    48  H    0.069984
    49  H    0.119533
    50  H    0.119199
    51  H    0.084427
    52  H    0.090816
    53  C   -0.035172
    54  C   -0.003654
    55  C   -0.014248
    56  C   -0.130311
    57  H    0.068607
    58  H    0.117901
    59  C   -0.031481
    60  C   -0.017264
    61  C   -0.008349
    62  C   -0.122671
    63  H    0.069984
    64  H    0.119533
    65  C   -0.063308
    66  C   -0.086118
    67  C   -0.045188
    68  C   -0.122097
    69  H    0.078413
    70  H    0.090816
    71  H    0.084427
    72  H    0.119199
 Sum of Mulliken charges =   0.00000
 Mulliken charges with hydrogens summed into heavy atoms:
               1
     1  C   -0.048892
     2  C   -0.021230
     3  C    0.035611
     4  C   -0.027121
     5  C    0.012640
     6  C    0.021540
     7  C    0.076503
     8  C   -0.048103
     9  C   -0.017270
    10  C   -0.008532
    17  C    0.070447
    18  C   -0.048103
    19  C   -0.021685
    20  C   -0.008532
    23  C    0.076503
    24  C   -0.048892
    25  C   -0.017270
    26  C   -0.021230
    29  C    0.035611
    30  C    0.012640
    31  C   -0.027121
    32  C    0.021540
    37  C   -0.017264
    38  C   -0.122671
    39  C    0.015105
    40  C    0.074011
    41  C    0.004698
    42  C   -0.037670
    43  C    0.038503
    44  C   -0.003654
    45  C    0.111183
    46  C   -0.130311
    53  C    0.033434
    54  C   -0.003654
    55  C    0.103653
    56  C   -0.130311
    59  C    0.038503
    60  C   -0.017264
    61  C    0.111183
    62  C   -0.122671
    65  C    0.015105
    66  C    0.004698
    67  C    0.074011
    68  C   -0.037670
         Mulliken charges condensed to fragments:
      1     -0.000947
      2      0.000947
 Electronic spatial extent (au):  <R**2>=          25799.6354
 Charge=              0.0000 electrons
 Dipole moment (field-independent basis, Debye):
    X=              1.1002    Y=             -1.5458    Z=              0.0000  Tot=              1.8974
 Quadrupole moment (field-independent basis, Debye-Ang):
   XX=           -245.7696   YY=           -249.4630   ZZ=           -219.4465
   XY=             -0.4054   XZ=              0.0000   YZ=              0.0000
 Traceless Quadrupole moment (field-independent basis, Debye-Ang):
   XX=             -7.5432   YY=            -11.2366   ZZ=             18.7799
   XY=             -0.4054   XZ=              0.0000   YZ=              0.0000
 Octapole moment (field-independent basis, Debye-Ang**2):
  XXX=             75.2149  YYY=            167.0303  ZZZ=              0.0000  XYY=            -14.9272
  XXY=            -70.1613  XXZ=              0.0000  XZZ=             19.5174  YZZ=            -35.6336
  YYZ=              0.0000  XYZ=              0.0000
 Hexadecapole moment (field-independent basis, Debye-Ang**3):
 XXXX=          -2410.9158 YYYY=         -10414.6999 ZZZZ=         -21022.4509 XXXY=           1612.2868
 XXXZ=              0.0000 YYYX=           1627.3079 YYYZ=              0.0000 ZZZX=              0.0000
 ZZZY=              0.0000 XXYY=          -2214.0397 XXZZ=          -4331.9259 YYZZ=          -5548.2410
 XXYZ=              0.0000 YYXZ=              0.0000 ZZXY=            476.5698
 N-N= 4.642194941827D+03 E-N=-1.321494767521D+04  KE= 1.686746817102D+03
 Symmetry A'   KE= 9.134595355580D+02
 Symmetry A"   KE= 7.732872815439D+02
 No NMR shielding tensors so no spin-rotation constants.
 Leave Link  601 at Wed Sep 27 17:00:02 2023, MaxMem=  3221225472 cpu:              49.7 elap:               1.3
 (Enter /home/center/opt/aarch64/apps/gaussian16/c01/g16/l122.exe)
 CPIOFr:  IOpCl= 0 IRwI=-1 IRwCP=  731 ICalc= -1 LCPTot=     1419224 Len1MO=     3708034 IndFrg=     1419224
 CPIOFr:  IOpCl= 0 IRwI=-1 IRwCP=  731 ICalc=  0 LCPTot=     1419224 Len1MO=     3708034 IndFrg=     5127258
 Counterpoise: doing calculation for fragment   1 using the basis set of the full-system, NewBq=T
 Leave Link  122 at Wed Sep 27 17:00:05 2023, MaxMem=  3221225472 cpu:              10.9 elap:               0.6
 (Enter /home/center/opt/aarch64/apps/gaussian16/c01/g16/l301.exe)
 Basis read from rwf:  (5D, 7F)
 No pseudopotential information found on rwf file.
 There are   528 symmetry adapted cartesian basis functions of A'  symmetry.
 There are   476 symmetry adapted cartesian basis functions of A"  symmetry.
 There are   504 symmetry adapted basis functions of A'  symmetry.
 There are   456 symmetry adapted basis functions of A"  symmetry.
   960 basis functions,  1632 primitive gaussians,  1004 cartesian basis functions
    73 alpha electrons       73 beta electrons
       nuclear repulsion energy      1494.3575060013 Hartrees.
 IExCor=  402 DFT=T Ex+Corr=B3LYP ExCW=0 ScaHFX=  0.200000
 ScaDFX=  0.800000  0.720000  1.000000  0.810000 ScalE2=  1.000000  1.000000
 IRadAn=      5 IRanWt=     -1 IRanGd=            0 ICorTp=0 IEmpDi=131
 NAtoms=   72 NActive=   72 NUniq=   40 SFac= 3.24D+00 NAtFMM=   60 NAOKFM=T Big=F
 Integral buffers will be    131072 words long.
 Raffenetti 2 integral format.
 Two-electron integral symmetry is turned on.
 R6Disp:  Grimme-D3 Dispersion energy=       -0.0303938888 Hartrees.
 Nuclear repulsion after empirical dispersion term =     1494.3271121125 Hartrees.
 No density basis found on file    718.
 Leave Link  301 at Wed Sep 27 17:00:07 2023, MaxMem=  3221225472 cpu:               2.4 elap:               0.1
 (Enter /home/center/opt/aarch64/apps/gaussian16/c01/g16/l302.exe)
 NPDir=0 NMtPBC=     1 NCelOv=     1 NCel=       1 NClECP=     1 NCelD=      1
         NCelK=      1 NCelE2=     1 NClLst=     1 CellRange=     0.0.
 One-electron integrals computed using PRISM.
 One-electron integral symmetry used in STVInt
 NBasis=   960 RedAO= T EigKep=  3.71D-05  NBF=   504   456
 NBsUse=   960 1.00D-06 EigRej= -1.00D+00 NBFU=   504   456
 Precomputing XC quadrature grid using
 IXCGrd= 4 IRadAn=           5 IRanWt=          -1 IRanGd=           0 AccXCQ= 0.00D+00.
 Generated NRdTot=       0 NPtTot=           0 NUsed=           0 NTot=          32
 NSgBfM=   989   989   989   989   989 MxSgAt=    72 MxSgA2=    72.
 Leave Link  302 at Wed Sep 27 17:00:11 2023, MaxMem=  3221225472 cpu:              60.6 elap:               1.7
 (Enter /home/center/opt/aarch64/apps/gaussian16/c01/g16/l303.exe)
 DipDrv:  MaxL=1.
 Leave Link  303 at Wed Sep 27 17:00:14 2023, MaxMem=  3221225472 cpu:              12.7 elap:               0.4
 (Enter /home/center/opt/aarch64/apps/gaussian16/c01/g16/l401.exe)
 ExpMin= 1.03D-01 ExpMax= 4.56D+03 ExpMxC= 6.82D+02 IAcc=3 IRadAn=         5 AccDes= 0.00D+00
 Harris functional with IExCor=  402 and IRadAn=       5 diagonalized for initial guess.
 HarFok:  IExCor=  402 AccDes= 0.00D+00 IRadAn=         5 IDoV= 1 UseB2=F ITyADJ=14
 ICtDFT=  3500011 ScaDFX=  1.000000  1.000000  1.000000  1.000000
 FoFCou: FMM=F IPFlag=           0 FMFlag=      100000 FMFlg1=        2000
         NFxFlg=           0 DoJE=T BraDBF=F KetDBF=T FulRan=T
         wScrn=  0.000000 ICntrl=       500 IOpCl=  0 I1Cent=   200000004 NGrid=           0
         NMat0=    1 NMatS0=      1 NMatT0=    0 NMatD0=    1 NMtDS0=    0 NMtDT0=    0
 Petite list used in FoFCou.
 Harris En= -847.066188302893    
 JPrj=0 DoOrth=F DoCkMO=F.
 Initial guess orbital symmetries:
       Occupied  (A") (A') (A') (A") (A") (A') (A") (A') (A') (A")
                 (A") (A') (A') (A') (A") (A') (A") (A') (A") (A')
                 (A') (A") (A') (A") (A') (A") (A') (A') (A") (A')
                 (A") (A") (A') (A') (A") (A") (A') (A") (A') (A')
                 (A') (A") (A") (A") (A') (A') (A") (A') (A') (A")
                 (A') (A") (A") (A') (A') (A") (A') (A") (A') (A")
                 (A") (A') (A') (A") (A') (A") (A') (A") (A') (A')
                 (A") (A") (A')
       Virtual   (A') (A") (A") (A') (A') (A") (A') (A") (A') (A")
                 (A') (A') (A") (A') (A") (A') (A") (A') (A') (A")
                 (A") (A") (A') (A') (A") (A') (A') (A') (A') (A")
                 (A') (A") (A") (A') (A") (A') (A') (A") (A") (A')
                 (A') (A") (A") (A') (A") (A') (A') (A") (A") (A')
                 (A") (A') (A") (A') (A') (A') (A") (A") (A') (A")
                 (A') (A') (A') (A") (A") (A') (A") (A') (A") (A')
                 (A') (A") (A") (A') (A') (A") (A') (A') (A") (A')
                 (A') (A') (A") (A") (A') (A") (A') (A") (A") (A')
                 (A") (A") (A") (A') (A') (A") (A") (A') (A') (A')
                 (A') (A") (A') (A') (A") (A') (A') (A") (A') (A")
                 (A") (A') (A") (A') (A") (A") (A') (A") (A") (A')
                 (A') (A") (A') (A") (A') (A') (A') (A") (A') (A')
                 (A") (A') (A") (A") (A') (A") (A') (A') (A") (A')
                 (A') (A") (A') (A") (A') (A") (A") (A") (A') (A")
                 (A') (A") (A') (A') (A") (A') (A") (A') (A') (A")
                 (A') (A') (A") (A") (A') (A") (A') (A") (A') (A")
                 (A') (A") (A") (A') (A') (A") (A') (A') (A") (A")
                 (A') (A') (A") (A") (A') (A") (A') (A') (A") (A")
                 (A') (A') (A') (A') (A") (A") (A") (A') (A') (A")
                 (A') (A") (A") (A') (A') (A") (A') (A') (A") (A")
                 (A') (A") (A') (A") (A') (A") (A') (A") (A") (A')
                 (A") (A') (A') (A") (A') (A") (A') (A') (A") (A')
                 (A') (A") (A') (A") (A') (A") (A") (A") (A') (A")
                 (A') (A') (A") (A") (A') (A') (A") (A') (A") (A')
                 (A") (A") (A') (A') (A") (A') (A") (A') (A") (A")
                 (A') (A') (A") (A') (A') (A") (A') (A') (A") (A')
                 (A") (A') (A") (A") (A") (A') (A") (A') (A') (A")
                 (A') (A") (A") (A') (A') (A") (A') (A') (A") (A')
                 (A") (A") (A') (A') (A') (A') (A") (A') (A") (A')
                 (A") (A') (A") (A") (A') (A") (A") (A') (A") (A')
                 (A") (A") (A') (A') (A') (A') (A") (A") (A') (A")
                 (A") (A') (A') (A") (A') (A') (A") (A') (A") (A')
                 (A') (A") (A') (A') (A') (A") (A") (A') (A") (A')
                 (A") (A") (A') (A") (A') (A") (A') (A") (A') (A')
                 (A") (A') (A") (A') (A") (A') (A") (A') (A') (A')
                 (A') (A") (A') (A") (A") (A') (A") (A") (A') (A")
                 (A") (A') (A') (A") (A") (A') (A') (A") (A") (A')
                 (A") (A') (A") (A') (A") (A') (A') (A") (A') (A")
                 (A') (A") (A') (A") (A') (A') (A") (A") (A') (A")
                 (A") (A') (A') (A") (A") (A') (A") (A') (A') (A')
                 (A") (A") (A') (A') (A") (A') (A') (A") (A') (A")
                 (A") (A') (A") (A") (A') (A') (A") (A") (A') (A")
                 (A") (A') (A') (A') (A') (A') (A") (A") (A") (A')
                 (A") (A') (A") (A') (A") (A') (A') (A') (A") (A")
                 (A') (A") (A') (A') (A") (A') (A") (A') (A") (A")
                 (A") (A') (A') (A') (A") (A") (A") (A') (A') (A')
                 (A") (A') (A") (A") (A') (A") (A") (A') (A') (A")
                 (A") (A') (A") (A') (A") (A') (A') (A") (A") (A')
                 (A') (A") (A') (A') (A") (A") (A') (A") (A') (A")
                 (A") (A') (A') (A") (A') (A") (A') (A') (A") (A")
                 (A') (A") (A') (A") (A') (A") (A") (A') (A') (A')
                 (A') (A") (A") (A') (A") (A") (A') (A") (A') (A")
                 (A') (A') (A') (A") (A') (A") (A') (A") (A') (A')
                 (A") (A") (A') (A") (A') (A") (A') (A') (A") (A')
                 (A") (A') (A") (A') (A") (A') (A") (A") (A') (A')
                 (A") (A') (A') (A") (A") (A') (A") (A') (A") (A')
                 (A") (A') (A') (A") (A') (A') (A') (A") (A") (A')
                 (A") (A") (A') (A") (A") (A') (A") (A') (A') (A')
                 (A") (A') (A') (A") (A') (A") (A") (A') (A") (A')
                 (A") (A') (A") (A") (A') (A') (A") (A") (A') (A')
                 (A") (A') (A') (A") (A') (A") (A') (A") (A') (A')
                 (A") (A') (A") (A") (A') (A") (A") (A') (A') (A")
                 (A") (A') (A") (A") (A") (A') (A') (A') (A') (A')
                 (A") (A") (A") (A') (A") (A') (A') (A') (A") (A")
                 (A') (A") (A') (A") (A') (A") (A") (A') (A") (A')
                 (A") (A') (A") (A') (A") (A') (A") (A') (A") (A')
                 (A') (A") (A") (A') (A") (A') (A') (A") (A') (A')
                 (A") (A') (A") (A') (A') (A") (A") (A') (A') (A")
                 (A') (A") (A') (A') (A") (A") (A') (A") (A') (A')
[...]
                 (A') (A') (A") (A") (A') (A") (A') (A") (A') (A')
                 (A") (A") (A')
       Virtual   (A') (A") (A") (A') (A') (A") (A') (A') (A') (A")
                 (A") (A') (A") (A') (A") (A') (A") (A") (A') (A")
                 (A') (A') (A") (A') (A") (A') (A') (A') (A') (A")
                 (A") (A") (A") (A') (A') (A") (A') (A") (A') (A")
                 (A') (A') (A') (A") (A') (A") (A") (A') (A') (A")
                 (A") (A') (A') (A") (A') (A") (A") (A") (A') (A")
                 (A') (A') (A') (A') (A') (A") (A') (A') (A") (A")
                 (A") (A') (A') (A') (A") (A') (A") (A") (A") (A')
                 (A') (A") (A') (A") (A") (A') (A") (A') (A') (A')
                 (A') (A') (A") (A") (A") (A") (A') (A") (A') (A")
                 (A') (A') (A') (A") (A") (A') (A') (A") (A') (A")
                 (A') (A") (A") (A") (A') (A') (A") (A') (A') (A")
                 (A') (A") (A") (A') (A') (A") (A') (A") (A') (A")
                 (A") (A') (A') (A') (A') (A") (A") (A") (A') (A")
                 (A') (A") (A') (A") (A') (A') (A") (A") (A') (A")
                 (A') (A") (A') (A") (A') (A') (A") (A') (A") (A")
                 (A') (A") (A') (A') (A") (A") (A') (A") (A') (A")
                 (A') (A') (A") (A') (A') (A") (A") (A') (A') (A')
                 (A") (A') (A") (A") (A") (A") (A') (A") (A') (A')
                 (A") (A') (A") (A') (A') (A') (A") (A') (A") (A')
                 (A") (A") (A') (A') (A") (A") (A') (A') (A") (A')
                 (A') (A') (A') (A") (A") (A") (A") (A') (A') (A")
                 (A') (A") (A") (A') (A") (A') (A") (A') (A") (A')
                 (A") (A') (A') (A") (A') (A") (A") (A') (A') (A")
                 (A") (A') (A') (A") (A") (A') (A") (A") (A") (A')
                 (A') (A") (A') (A') (A") (A') (A') (A") (A') (A")
                 (A") (A') (A") (A') (A') (A") (A") (A") (A') (A')
                 (A") (A') (A') (A") (A") (A") (A') (A") (A') (A')
                 (A") (A') (A") (A') (A") (A') (A') (A') (A") (A')
                 (A") (A") (A') (A') (A") (A") (A') (A") (A') (A")
                 (A') (A') (A") (A") (A') (A') (A") (A') (A') (A')
                 (A") (A") (A') (A") (A') (A") (A') (A") (A') (A')
                 (A') (A") (A") (A") (A') (A") (A') (A') (A') (A")
                 (A") (A') (A") (A') (A') (A") (A') (A") (A") (A')
                 (A') (A") (A') (A") (A") (A') (A') (A") (A') (A")
                 (A') (A") (A') (A") (A') (A") (A") (A') (A') (A")
                 (A') (A") (A') (A') (A") (A") (A') (A") (A') (A')
                 (A") (A') (A") (A') (A') (A") (A') (A") (A') (A")
                 (A") (A') (A") (A') (A") (A') (A") (A') (A') (A")
                 (A") (A') (A") (A') (A') (A") (A") (A') (A') (A")
                 (A') (A") (A') (A") (A') (A') (A")
 The electronic state is 1-A'.
 Alpha  occ. eigenvalues --  -10.18931 -10.18930 -10.18896 -10.18895 -10.18848
 Alpha  occ. eigenvalues --  -10.18848 -10.18813 -10.18813 -10.17956 -10.17955
 Alpha  occ. eigenvalues --  -10.17920 -10.17920 -10.17919 -10.17919 -10.17875
 Alpha  occ. eigenvalues --  -10.17875 -10.17863 -10.17863 -10.17808 -10.17808
 Alpha  occ. eigenvalues --  -10.17781 -10.17781  -0.89340  -0.87865  -0.85549
 Alpha  occ. eigenvalues --   -0.82415  -0.79820  -0.78521  -0.78314  -0.75991
 Alpha  occ. eigenvalues --   -0.74255  -0.72901  -0.69196  -0.67344  -0.62728
 Alpha  occ. eigenvalues --   -0.62370  -0.61108  -0.59964  -0.59301  -0.57689
 Alpha  occ. eigenvalues --   -0.52709  -0.52573  -0.52293  -0.49654  -0.48513
 Alpha  occ. eigenvalues --   -0.47160  -0.46110  -0.45590  -0.45476  -0.43928
 Alpha  occ. eigenvalues --   -0.43182  -0.42578  -0.41808  -0.41572  -0.41386
 Alpha  occ. eigenvalues --   -0.40692  -0.40405  -0.39579  -0.38193  -0.36732
 Alpha  occ. eigenvalues --   -0.36341  -0.35550  -0.34094  -0.33809  -0.33058
 Alpha  occ. eigenvalues --   -0.32930  -0.31612  -0.29665  -0.28406  -0.26623
 Alpha  occ. eigenvalues --   -0.24364  -0.22582  -0.17855
 Alpha virt. eigenvalues --   -0.09755  -0.04464  -0.02747  -0.00147   0.02073
 Alpha virt. eigenvalues --    0.02370   0.03189   0.04746   0.04859   0.04871
 Alpha virt. eigenvalues --    0.06161   0.06575   0.07968   0.08162   0.08303
 Alpha virt. eigenvalues --    0.09607   0.10049   0.11524   0.11533   0.13796
 Alpha virt. eigenvalues --    0.14111   0.14670   0.18092   0.18194   0.18832
 Alpha virt. eigenvalues --    0.19391   0.22815   0.23002   0.24379   0.24942
 Alpha virt. eigenvalues --    0.25581   0.27528   0.27575   0.28012   0.28228
 Alpha virt. eigenvalues --    0.28947   0.29389   0.30158   0.30759   0.31175
 Alpha virt. eigenvalues --    0.32897   0.34528   0.36420   0.36484   0.37134
 Alpha virt. eigenvalues --    0.37503   0.37629   0.37651   0.38116   0.38643
 Alpha virt. eigenvalues --    0.39094   0.39439   0.39739   0.40236   0.40435
 Alpha virt. eigenvalues --    0.41918   0.41926   0.41940   0.42289   0.42318
 Alpha virt. eigenvalues --    0.42643   0.43748   0.44233   0.44835   0.45295
 Alpha virt. eigenvalues --    0.45683   0.45924   0.45953   0.46379   0.47165
 Alpha virt. eigenvalues --    0.47805   0.47809   0.47978   0.48073   0.48231
 Alpha virt. eigenvalues --    0.48568   0.49414   0.49572   0.51377   0.51846
 Alpha virt. eigenvalues --    0.52370   0.53118   0.53671   0.55998   0.57923
 Alpha virt. eigenvalues --    0.57955   0.59048   0.59201   0.60433   0.60585
 Alpha virt. eigenvalues --    0.60693   0.61101   0.61690   0.62105   0.62173
 Alpha virt. eigenvalues --    0.63432   0.63481   0.64458   0.64535   0.65533
 Alpha virt. eigenvalues --    0.66693   0.66910   0.67680   0.67724   0.70658
 Alpha virt. eigenvalues --    0.71305   0.71405   0.71494   0.72803   0.73989
 Alpha virt. eigenvalues --    0.75405   0.75894   0.76289   0.77801   0.77809
 Alpha virt. eigenvalues --    0.78943   0.79160   0.79723   0.81162   0.81509
 Alpha virt. eigenvalues --    0.82881   0.83001   0.84383   0.84585   0.84713
 Alpha virt. eigenvalues --    0.88087   0.89711   0.89765   0.91536   0.92083
 Alpha virt. eigenvalues --    0.92578   0.93749   0.95806   0.96107   0.96442
 Alpha virt. eigenvalues --    0.96590   0.96905   0.98547   1.00356   1.01118
 Alpha virt. eigenvalues --    1.02686   1.03027   1.03354   1.04405   1.05244
 Alpha virt. eigenvalues --    1.05439   1.05525   1.05950   1.07395   1.07547
 Alpha virt. eigenvalues --    1.07686   1.08438   1.10005   1.10036   1.12070
 Alpha virt. eigenvalues --    1.13223   1.13544   1.13650   1.14526   1.15341
 Alpha virt. eigenvalues --    1.17432   1.18332   1.19657   1.20432   1.23014
 Alpha virt. eigenvalues --    1.23618   1.27884   1.28234   1.30579   1.32076
 Alpha virt. eigenvalues --    1.32743   1.34942   1.37641   1.39236   1.39896
 Alpha virt. eigenvalues --    1.39942   1.40725   1.42751   1.43476   1.43554
 Alpha virt. eigenvalues --    1.45057   1.46086   1.47119   1.47538   1.48841
 Alpha virt. eigenvalues --    1.49280   1.49417   1.50258   1.50674   1.52268
 Alpha virt. eigenvalues --    1.52650   1.53402   1.54331   1.54372   1.54781
 Alpha virt. eigenvalues --    1.54807   1.57107   1.57715   1.58569   1.59882
 Alpha virt. eigenvalues --    1.60106   1.62692   1.63242   1.64856   1.66641
 Alpha virt. eigenvalues --    1.69292   1.69605   1.69709   1.70649   1.71804
 Alpha virt. eigenvalues --    1.72459   1.72619   1.73075   1.73096   1.73680
 Alpha virt. eigenvalues --    1.77494   1.78519   1.79157   1.79419   1.80511
 Alpha virt. eigenvalues --    1.81616   1.81887   1.82058   1.83581   1.84039
 Alpha virt. eigenvalues --    1.85487   1.87392   1.87456   1.87577   1.87728
 Alpha virt. eigenvalues --    1.88131   1.88613   1.90743   1.91387   1.92190
 Alpha virt. eigenvalues --    1.92193   1.92572   1.92670   1.93517   1.93938
 Alpha virt. eigenvalues --    1.94544   1.95483   1.97262   1.99429   2.00088
 Alpha virt. eigenvalues --    2.00602   2.01362   2.03019   2.05757   2.08293
 Alpha virt. eigenvalues --    2.09111   2.09256   2.09792   2.12192   2.14098
 Alpha virt. eigenvalues --    2.15528   2.15584   2.17200   2.19751   2.20833
 Alpha virt. eigenvalues --    2.21576   2.22525   2.23381   2.24503   2.26441
 Alpha virt. eigenvalues --    2.26972   2.27242   2.27719   2.28046   2.29391
 Alpha virt. eigenvalues --    2.33301   2.35725   2.39155   2.39384   2.40817
 Alpha virt. eigenvalues --    2.42649   2.43076   2.45776   2.45994   2.46870
 Alpha virt. eigenvalues --    2.51623   2.51954   2.53354   2.53485   2.55138
 Alpha virt. eigenvalues --    2.56159   2.58701   2.58838   2.59764   2.59776
 Alpha virt. eigenvalues --    2.60682   2.61147   2.61719   2.62222   2.63349
 Alpha virt. eigenvalues --    2.63999   2.64478   2.66054   2.66794   2.67121
 Alpha virt. eigenvalues --    2.67374   2.68356   2.68872   2.68876   2.69372
 Alpha virt. eigenvalues --    2.69557   2.69907   2.70083   2.70281   2.73482
 Alpha virt. eigenvalues --    2.74771   2.74836   2.76066   2.77101   2.77577
 Alpha virt. eigenvalues --    2.78232   2.78455   2.78850   2.80822   2.82359
 Alpha virt. eigenvalues --    2.85535   2.85993   2.86737   2.87294   2.90966
 Alpha virt. eigenvalues --    2.91783   2.92195   2.93676   2.95232   2.95887
 Alpha virt. eigenvalues --    2.99270   2.99858   3.03165   3.05604   3.06852
 Alpha virt. eigenvalues --    3.07371   3.15988   3.16029   3.16647   3.19843
 Alpha virt. eigenvalues --    3.20017   3.23601   3.29134   3.29680   3.31610
 Alpha virt. eigenvalues --    3.35095   3.35458   3.35677   3.35858   3.38023
 Alpha virt. eigenvalues --    3.39887   3.41413   3.44960   3.45362   3.47993
 Alpha virt. eigenvalues --    3.48278   3.50401   3.53073   3.57439   3.58649
 Alpha virt. eigenvalues --    3.61466   3.62620   3.63208   3.63698   3.65910
 Alpha virt. eigenvalues --    3.67534   3.67678   4.00384   4.00442   4.01859
 Alpha virt. eigenvalues --    4.02182   4.16133   4.16678   4.17360   4.21240
 Alpha virt. eigenvalues --    4.22396   4.22517   4.25488   4.38492   4.62290
 Alpha virt. eigenvalues --    4.79179   4.79740   4.80562   4.82562   4.83014
 Alpha virt. eigenvalues --   23.39176  23.54541  23.69085  23.77378  23.80419
 Alpha virt. eigenvalues --   23.81537  23.86099  23.89067  23.89154  23.92210
 Alpha virt. eigenvalues --   23.97563  23.98365  24.09049  24.09932  24.10529
 Alpha virt. eigenvalues --   24.12220  24.13779  24.14375  24.15775  24.15810
 Alpha virt. eigenvalues --   24.20452  24.20497
          Condensed to atoms (all electrons):
 Mulliken charges:
               1
     1  C    0.000000
     2  C    0.000000
     3  C    0.000000
     4  C    0.000000
     5  C    0.000000
     6  C    0.000000
     7  C    0.000000
     8  C    0.000000
     9  C    0.000000
    10  C    0.000000
    11  H    0.000000
    12  H    0.000000
    13  H    0.000000
    14  H    0.000000
    15  H    0.000000
    16  H    0.000000
    17  C    0.000000
    18  C    0.000000
    19  C    0.000000
    20  C    0.000000
    21  H    0.000000
    22  H    0.000000
    23  C    0.000000
    24  C    0.000000
    25  C    0.000000
    26  C    0.000000
    27  H    0.000000
    28  H    0.000000
    29  C    0.000000
    30  C    0.000000
    31  C    0.000000
    32  C    0.000000
    33  H    0.000000
    34  H    0.000000
    35  H    0.000000
    36  H    0.000000
    37  C   -0.059168
    38  C   -0.059168
    39  C   -0.055977
    40  C   -0.055977
    41  C   -0.092198
    42  C   -0.092198
    43  C   -0.016525
    44  C   -0.054498
    45  C   -0.016525
    46  C   -0.054498
    47  H    0.082122
    48  H    0.074853
    49  H    0.074853
    50  H    0.082122
    51  H    0.094847
    52  H    0.094847
    53  C   -0.020341
    54  C   -0.054498
    55  C   -0.020341
    56  C   -0.054498
    57  H    0.073428
    58  H    0.073428
    59  C   -0.016525
    60  C   -0.059168
    61  C   -0.016525
    62  C   -0.059168
    63  H    0.074853
    64  H    0.074853
    65  C   -0.055977
    66  C   -0.092198
    67  C   -0.055977
    68  C   -0.092198
    69  H    0.082122
    70  H    0.094847
    71  H    0.094847
    72  H    0.082122
 Sum of Mulliken charges =   0.00000
 Mulliken charges with hydrogens summed into heavy atoms:
               1
     1  C    0.000000
     2  C    0.000000
     3  C    0.000000
     4  C    0.000000
     5  C    0.000000
     6  C    0.000000
     7  C    0.000000
     8  C    0.000000
     9  C    0.000000
    10  C    0.000000
    17  C    0.000000
    18  C    0.000000
    19  C    0.000000
    20  C    0.000000
    23  C    0.000000
    24  C    0.000000
    25  C    0.000000
    26  C    0.000000
    29  C    0.000000
    30  C    0.000000
    31  C    0.000000
    32  C    0.000000
    37  C   -0.059168
    38  C   -0.059168
    39  C    0.026144
    40  C    0.026144
    41  C    0.002649
    42  C    0.002649
    43  C    0.058328
    44  C   -0.054498
    45  C    0.058328
    46  C   -0.054498
    53  C    0.053087
    54  C   -0.054498
    55  C    0.053087
    56  C   -0.054498
    59  C    0.058328
    60  C   -0.059168
    61  C    0.058328
    62  C   -0.059168
    65  C    0.026144
    66  C    0.002649
    67  C    0.026144
    68  C    0.002649
         Mulliken charges condensed to fragments:
      1      0.000000
      2      0.000000
 Electronic spatial extent (au):  <R**2>=          21061.7192
 Charge=              0.0000 electrons
 Dipole moment (field-independent basis, Debye):
    X=              0.0000    Y=              0.0000    Z=              0.0000  Tot=              0.0000
 Quadrupole moment (field-independent basis, Debye-Ang):
   XX=           -136.3921   YY=           -110.7480   ZZ=           -109.0115
   XY=              0.0000   XZ=              0.0000   YZ=              0.0000
 Traceless Quadrupole moment (field-independent basis, Debye-Ang):
   XX=            -17.6749   YY=              7.9692   ZZ=              9.7057
   XY=              0.0000   XZ=              0.0000   YZ=              0.0000
 Octapole moment (field-independent basis, Debye-Ang**2):
  XXX=           1374.3235  YYY=           1115.9273  ZZZ=              0.0000  XYY=            371.9758
  XXY=            458.1078  XXZ=              0.0000  XZZ=            366.1431  YZZ=            366.1431
  YYZ=              0.0000  XYZ=              0.0000
 Hexadecapole moment (field-independent basis, Debye-Ang**3):
 XXXX=          -9386.4415 YYYY=          -8612.9742 ZZZZ=         -10461.4324 XXXY=          -4616.0188
 XXXZ=              0.0000 YYYX=          -3748.1287 YYYZ=              0.0000 ZZZX=              0.0000
 ZZZY=              0.0000 XXYY=          -3044.4645 XXZZ=          -3437.7177 YYZZ=          -3199.0001
 XXYZ=              0.0000 YYXZ=              0.0000 ZZXY=          -1229.7857
 N-N= 1.494327111716D+03 E-N=-4.953709174967D+03  KE= 8.433374904891D+02
 Symmetry A'   KE= 4.567052305374D+02
 Symmetry A"   KE= 3.866322599518D+02
 No NMR shielding tensors so no spin-rotation constants.
 Leave Link  601 at Wed Sep 27 17:18:02 2023, MaxMem=  3221225472 cpu:              17.8 elap:               0.5
 (Enter /home/center/opt/aarch64/apps/gaussian16/c01/g16/l122.exe)
 CPIOFr:  IOpCl= 0 IRwI=-1 IRwCP=  731 ICalc=  4 LCPTot=     1419224 Len1MO=     3708034 IndFrg=    19959394
 Restoring MOs from calculation   1 to rwf.
 CPIOFr:  IOpCl= 0 IRwI=-2 IRwCP=  731 ICalc=  0 LCPTot=     1419224 Len1MO=     3708034 IndFrg=     5127258
 Counterpoise corrected energy =   -1694.040399216829
                   BSSE energy =      -0.000001265997
              sum of fragments =   -1694.039683044256
           complexation energy =      -0.45 kcal/mole (raw)
           complexation energy =      -0.45 kcal/mole (corrected)
 Leave Link  122 at Wed Sep 27 17:18:05 2023, MaxMem=  3221225472 cpu:               8.3 elap:               0.3
 (Enter /home/center/opt/aarch64/apps/gaussian16/c01/g16/l9999.exe)

 Test job not archived.
 1\1\GINC-FX0523\SP\RB3LYP\6-311G(d,p)\C44H28\Z40145W\27-Sep-2023\0\\#P
  TEST b3lyp/6-311G** EmpiricalDispersion=GD3 counterpoise=2\\pentacene
 _A1=0_A2=0_A3=45_p2\\0,1\C,0,-0.5039478476,0.5239478476,-3.6612755801\
 C,0,0.5239480325,-0.5039480325,-3.6612755629\C,0,-0.9861248463,1.00612
 48463,-4.9235927708\C,0,1.0061250889,-0.9861250889,-4.9235926697\C,0,-
 0.4963213507,0.5163213507,-6.096356521\C,0,0.5163216812,-0.4963216812,
 -6.0963564796\C,0,-0.9844684311,1.0044684311,-2.4533174875\C,0,-0.5044
 88426,0.524488426,-1.2140288145\C,0,1.0044685359,-0.9844685359,-2.4533
 173917\C,0,0.5244885437,-0.5044885437,-1.2140288362\H,0,-1.7533559667,
 1.7733559667,-4.9232600459\H,0,-1.7521866813,1.7721866813,-2.453928581
 5\H,0,1.7721859268,-1.7521859268,-2.4539284818\H,0,1.7733558421,-1.753
 3558421,-4.9232597785\H,0,0.8905568758,-0.8705568758,-7.0425276922\H,0
 ,-0.8705565046,0.8905565046,-7.042527775\C,0,-0.9848184961,1.004818496
 1,0.0099998782\C,0,-0.5044883957,0.5244883957,1.2340295553\C,0,1.00481
 85643,-0.9848185643,0.0099998696\C,0,0.5244885146,-0.5044885146,1.2340
 295261\H,0,-1.7524699697,1.7724699697,0.0099999205\H,0,1.772468921,-1.
 752468921,0.0099999641\C,0,-0.9844683048,1.0044683048,2.4733171385\C,0
 ,-0.5039477114,0.5239477114,3.681276331\C,0,1.0044684211,-0.9844684211
 ,2.4733170835\C,0,0.5239479079,-0.5039479079,3.6812763217\H,0,-1.75218
 65527,1.7721865527,2.4739285326\H,0,1.7721858092,-1.7521858092,2.47392
 83796\C,0,-0.9861245177,1.0061245177,4.9435920588\C,0,-0.4963209372,0.
 5163209372,6.116356633\C,0,1.0061247659,-0.9861247659,4.9435919377\C,0
 ,0.5163212637,-0.4963212637,6.1163566075\H,0,-1.7533556504,1.773355650
 4,4.9432601504\H,0,-0.8705567426,0.8905567426,7.0625274368\H,0,0.89055
 70967,-0.8705570967,7.0625272142\H,0,1.7733555414,-1.7533555414,4.9432
 599297\C,0,8.9960521524,0.5239478476,-3.6612755801\C,0,10.0239480325,-
 0.5039480325,-3.6612755629\C,0,8.5138751537,1.0061248463,-4.9235927708
 \C,0,10.5061250889,-0.9861250889,-4.9235926697\C,0,9.0036786493,0.5163
 213507,-6.096356521\C,0,10.0163216812,-0.4963216812,-6.0963564796\C,0,
 8.5155315689,1.0044684311,-2.4533174875\C,0,8.995511574,0.524488426,-1
 .2140288145\C,0,10.5044685359,-0.9844685359,-2.4533173917\C,0,10.02448
 85437,-0.5044885437,-1.2140288362\H,0,7.7466440333,1.7733559667,-4.923
 2600459\H,0,7.7478133187,1.7721866813,-2.4539285815\H,0,11.2721859268,
 -1.7521859268,-2.4539284818\H,0,11.2733558421,-1.7533558421,-4.9232597
 785\H,0,10.3905568758,-0.8705568758,-7.0425276922\H,0,8.6294434954,0.8
 905565046,-7.042527775\C,0,8.5151815039,1.0048184961,0.0099998782\C,0,
 8.9955116043,0.5244883957,1.2340295553\C,0,10.5048185643,-0.9848185643
 ,0.0099998696\C,0,10.0244885146,-0.5044885146,1.2340295261\H,0,7.74753
 00303,1.7724699697,0.0099999205\H,0,11.272468921,-1.752468921,0.009999
 9641\C,0,8.5155316952,1.0044683048,2.4733171385\C,0,8.9960522886,0.523
 9477114,3.681276331\C,0,10.5044684211,-0.9844684211,2.4733170835\C,0,1
 0.0239479079,-0.5039479079,3.6812763217\H,0,7.7478134473,1.7721865527,
 2.4739285326\H,0,11.2721858092,-1.7521858092,2.4739283796\C,0,8.513875
 4823,1.0061245177,4.9435920588\C,0,9.0036790628,0.5163209372,6.1163566
 33\C,0,10.5061247659,-0.9861247659,4.9435919377\C,0,10.0163212637,-0.4
 963212637,6.1163566075\H,0,7.7466443496,1.7733556504,4.9432601504\H,0,
 8.6294432574,0.8905567426,7.0625274368\H,0,10.3905570967,-0.8705570967
 ,7.0625272142\H,0,11.2733555414,-1.7533555414,4.9432599297\\Version=Fu
 jitsu-Arm-G16RevC.01\State=1-A'\HF=-847.0198415\RMSD=3.182e-09\Dipole=
 0.0000222,-0.0000221,0.\Quadrupole=-7.6759624,-6.7547486,14.430711,-18
 .5422722,0.,0.\PG=CS [SG(C4H4),X(C40H24)]\\@


 DO NOT LET SELFISH MEN OR GREEDY INTERESTS SKIN YOUR COUNTRY OF ITS
 BEAUTY, ITS RICHES, OR ITS ROMANCE. -- THEODORE ROOSEVELT
 Job cpu time:       0 days  2 hours 35 minutes 38.1 seconds.
 Elapsed time:       0 days  0 hours  4 minutes  8.7 seconds.
 File lengths (MBytes):  RWF=    718 Int=      0 D2E=      0 Chk=    208 Scr=      1
 Normal termination of Gaussian 16 at Wed Sep 27 17:18:11 2023.
