 Entering Gaussian System, Link 0=g16
 Initial command:
 /home/center/opt/aarch64/apps/gaussian16/c01/g16/l1.exe "/data/tmp/Gtmp/1006932/Gau-49.inp" -scrdir="/data/tmp/Gtmp/1006932/"
 Entering Link 1 = /home/center/opt/aarch64/apps/gaussian16/c01/g16/l1.exe PID=        50.
  
 Copyright (c) 1988-2019, Gaussian, Inc.  All Rights Reserved.
  
 This is part of the Gaussian(R) 16 program.  It is based on
 the Gaussian(R) 09 system (copyright 2009, Gaussian, Inc.),
 the Gaussian(R) 03 system (copyright 2003, Gaussian, Inc.),
 the Gaussian(R) 98 system (copyright 1998, Gaussian, Inc.),
 the Gaussian(R) 94 system (copyright 1995, Gaussian, Inc.),
 the Gaussian 92(TM) system (copyright 1992, Gaussian, Inc.),
 the Gaussian 90(TM) system (copyright 1990, Gaussian, Inc.),
 the Gaussian 88(TM) system (copyright 1988, Gaussian, Inc.),
 the Gaussian 86(TM) system (copyright 1986, Carnegie Mellon
 University), and the Gaussian 82(TM) system (copyright 1983,
 Carnegie Mellon University). Gaussian is a federally registered
 trademark of Gaussian, Inc.
  
 This software contains proprietary and confidential information,
 including trade secrets, belonging to Gaussian, Inc.
  
 This software is provided under written license and may be
 used, copied, transmitted, or stored only in accord with that
 written license.
  
 The following legend is applicable only to US Government
 contracts under FAR:
  
                    RESTRICTED RIGHTS LEGEND
  
 Use, reproduction and disclosure by the US Government is
 subject to restrictions as set forth in subparagraphs (a)
 and (c) of the Commercial Computer Software - Restricted
 Rights clause in FAR 52.227-19.
  
 Gaussian, Inc.
 340 Quinnipiac St., Bldg. 40, Wallingford CT 06492
  
  
 ---------------------------------------------------------------
 Warning -- This program may not be used in any manner that
 competes with the business of Gaussian, Inc. or will provide
 assistance to any competitor of Gaussian, Inc.  The licensee
 of this program is prohibited from giving any competitor of
 Gaussian, Inc. access to this program.  By using this program,
 the user acknowledges that Gaussian, Inc. is engaged in the
 business of creating and licensing software in the field of
 computational chemistry and represents and warrants to the
 licensee that it is not a competitor of Gaussian, Inc. and that
 it will not use this program in any manner prohibited above.
 ---------------------------------------------------------------
  

 Cite this work as:
 Gaussian 16, Revision C.01,
 M. J. Frisch, G. W. Trucks, H. B. Schlegel, G. E. Scuseria, 
 M. A. Robb, J. R. Cheeseman, G. Scalmani, V. Barone, 
 G. A. Petersson, H. Nakatsuji, X. Li, M. Caricato, A. V. Marenich, 
 J. Bloino, B. G. Janesko, R. Gomperts, B. Mennucci, H. P. Hratchian, 
 J. V. Ortiz, A. F. Izmaylov, J. L. Sonnenberg, D. Williams-Young, 
 F. Ding, F. Lipparini, F. Egidi, J. Goings, B. Peng, A. Petrone, 
 T. Henderson, D. Ranasinghe, V. G. Zakrzewski, J. Gao, N. Rega, 
 G. Zheng, W. Liang, M. Hada, M. Ehara, K. Toyota, R. Fukuda, 
 J. Hasegawa, M. Ishida, T. Nakajima, Y. Honda, O. Kitao, H. Nakai, 
 T. Vreven, K. Throssell, J. A. Montgomery, Jr., J. E. Peralta, 
 F. Ogliaro, M. J. Bearpark, J. J. Heyd, E. N. Brothers, K. N. Kudin, 
 V. N. Staroverov, T. A. Keith, R. Kobayashi, J. Normand, 
 K. Raghavachari, A. P. Rendell, J. C. Burant, S. S. Iyengar, 
 J. Tomasi, M. Cossi, J. M. Millam, M. Klene, C. Adamo, R. Cammi, 
 J. W. Ochterski, R. L. Martin, K. Morokuma, O. Farkas, 
 J. B. Foresman, and D. J. Fox, Gaussian, Inc., Wallingford CT, 2019.
 
 ************************************************
 Gaussian 16:  Fujitsu-Arm-G16RevC.01  3-Jul-2019
                   27-Sep-2023 
 ************************************************
 %mem=24GB
 %nproc=42
 Will use up to   42 processors via shared memory.
 -------------------------------------------------------------
 #P TEST b3lyp/6-311G** EmpiricalDispersion=GD3 counterpoise=2
 -------------------------------------------------------------
 1/38=1,62=2,172=1/1;
 2/12=2,17=6,18=5,40=1/2;
 1/38=1,53=2,62=2,63=1/22;
 3/5=4,6=6,7=101,11=2,25=1,30=1,74=-5,124=31/1,2,3;
 4//1;
 5/5=2,38=5/2;
 6/7=2,8=2,9=2,10=2,28=1/1;
 1/53=2,62=2,63=1/22;
 3/5=7,6=11,7=101,11=2,25=1,30=1,74=-5,82=7,124=31/1,2,3;
 4//1;
 5/5=2,38=5/2;
 6/7=2,8=2,9=2,10=2,28=1/1;
 1/53=2,62=2,63=1/22(-4);
 99/5=1,9=1/99;
 Leave Link    1 at Wed Sep 27 16:37:38 2023, MaxMem=  3221225472 cpu:               7.3 elap:               0.2
 (Enter /home/center/opt/aarch64/apps/gaussian16/c01/g16/l101.exe)
 ----------------------------
 pentacene_A1=0_A2=0_A3=45_t1
 ----------------------------
 Symbolic Z-matrix:
 Charge =  0 Multiplicity = 1 in supermolecule
 Charge =  0 Multiplicity = 1 in fragment      1.
 Charge =  0 Multiplicity = 1 in fragment      2.
 C(Fragment=1)        -0.50395   0.52395  -3.66128 
 C(Fragment=1)         0.52395  -0.50395  -3.66128 
 C(Fragment=1)        -0.98612   1.00612  -4.92359 
 C(Fragment=1)         1.00613  -0.98613  -4.92359 
 C(Fragment=1)        -0.49632   0.51632  -6.09636 
 C(Fragment=1)         0.51632  -0.49632  -6.09636 
 C(Fragment=1)        -0.98447   1.00447  -2.45332 
 C(Fragment=1)        -0.50449   0.52449  -1.21403 
 C(Fragment=1)         1.00447  -0.98447  -2.45332 
 C(Fragment=1)         0.52449  -0.50449  -1.21403 
 H(Fragment=1)        -1.75336   1.77336  -4.92326 
 H(Fragment=1)        -1.75219   1.77219  -2.45393 
 H(Fragment=1)         1.77219  -1.75219  -2.45393 
 H(Fragment=1)         1.77336  -1.75336  -4.92326 
 H(Fragment=1)         0.89056  -0.87056  -7.04253 
 H(Fragment=1)        -0.87056   0.89056  -7.04253 
 C(Fragment=1)        -0.98482   1.00482   0.01 
 C(Fragment=1)        -0.50449   0.52449   1.23403 
 C(Fragment=1)         1.00482  -0.98482   0.01 
 C(Fragment=1)         0.52449  -0.50449   1.23403 
 H(Fragment=1)        -1.75247   1.77247   0.01 
 H(Fragment=1)         1.77247  -1.75247   0.01 
 C(Fragment=1)        -0.98447   1.00447   2.47332 
 C(Fragment=1)        -0.50395   0.52395   3.68128 
 C(Fragment=1)         1.00447  -0.98447   2.47332 
 C(Fragment=1)         0.52395  -0.50395   3.68128 
 H(Fragment=1)        -1.75219   1.77219   2.47393 
 H(Fragment=1)         1.77219  -1.75219   2.47393 
 C(Fragment=1)        -0.98612   1.00612   4.94359 
 C(Fragment=1)        -0.49632   0.51632   6.11636 
 C(Fragment=1)         1.00612  -0.98612   4.94359 
 C(Fragment=1)         0.51632  -0.49632   6.11636 
 H(Fragment=1)        -1.75336   1.77336   4.94326 
 H(Fragment=1)        -0.87056   0.89056   7.06253 
 H(Fragment=1)         0.89056  -0.87056   7.06253 
 H(Fragment=1)         1.77336  -1.75336   4.94326 
 C(Fragment=2)         3.02395   6.02395  -3.66128 
 C(Fragment=2)         1.99605   4.99605  -3.66128 
 C(Fragment=2)         3.50612   6.50612  -4.92359 
 C(Fragment=2)         1.51387   4.51387  -4.92359 
 C(Fragment=2)         3.01632   6.01632  -6.09636 
 C(Fragment=2)         2.00368   5.00368  -6.09636 
 C(Fragment=2)         3.50447   6.50447  -2.45332 
 C(Fragment=2)         3.02449   6.02449  -1.21403 
 C(Fragment=2)         1.51553   4.51553  -2.45332 
 C(Fragment=2)         1.99551   4.99551  -1.21403 
 H(Fragment=2)         4.27336   7.27336  -4.92326 
 H(Fragment=2)         4.27219   7.27219  -2.45393 
 H(Fragment=2)         0.74781   3.74781  -2.45393 
 H(Fragment=2)         0.74664   3.74664  -4.92326 
 H(Fragment=2)         1.62944   4.62944  -7.04253 
 H(Fragment=2)         3.39056   6.39056  -7.04253 
 C(Fragment=2)         3.50482   6.50482   0.01 
 C(Fragment=2)         3.02449   6.02449   1.23403 
 C(Fragment=2)         1.51518   4.51518   0.01 
 C(Fragment=2)         1.99551   4.99551   1.23403 
 H(Fragment=2)         4.27247   7.27247   0.01 
 H(Fragment=2)         0.74753   3.74753   0.01 
 C(Fragment=2)         3.50447   6.50447   2.47332 
 C(Fragment=2)         3.02395   6.02395   3.68128 
 C(Fragment=2)         1.51553   4.51553   2.47332 
 C(Fragment=2)         1.99605   4.99605   3.68128 
 H(Fragment=2)         4.27219   7.27219   2.47393 
 H(Fragment=2)         0.74781   3.74781   2.47393 
 C(Fragment=2)         3.50612   6.50612   4.94359 
 C(Fragment=2)         3.01632   6.01632   6.11636 
 C(Fragment=2)         1.51388   4.51388   4.94359 
 C(Fragment=2)         2.00368   5.00368   6.11636 
 H(Fragment=2)         4.27336   7.27336   4.94326 
 H(Fragment=2)         3.39056   6.39056   7.06253 
 H(Fragment=2)         1.62944   4.62944   7.06253 
 H(Fragment=2)         0.74664   3.74664   4.94326 
 
 ITRead=  0  0  0  0  0  0  0  0  0  0  0  0  0  0  0  0  0  0  0  0
 ITRead=  0  0  0  0  0  0  0  0  0  0  0  0  0  0  0  0  0  0  0  0
 ITRead=  0  0  0  0  0  0  0  0  0  0  0  0  0  0  0  0  0  0  0  0
 ITRead=  0  0  0  0  0  0  0  0  0  0  0  0
 MicOpt= -1 -1 -1 -1 -1 -1 -1 -1 -1 -1 -1 -1 -1 -1 -1 -1 -1 -1 -1 -1
 MicOpt= -1 -1 -1 -1 -1 -1 -1 -1 -1 -1 -1 -1 -1 -1 -1 -1 -1 -1 -1 -1
 MicOpt= -1 -1 -1 -1 -1 -1 -1 -1 -1 -1 -1 -1 -1 -1 -1 -1 -1 -1 -1 -1
 MicOpt= -1 -1 -1 -1 -1 -1 -1 -1 -1 -1 -1 -1
 NAtoms=     72 NQM=       72 NQMF=       0 NMMI=      0 NMMIF=      0
                NMic=       0 NMicF=      0.
                    Isotopes and Nuclear Properties:
 (Nuclear quadrupole moments (NQMom) in fm**2, nuclear magnetic moments (NMagM)
  in nuclear magnetons)

  Atom         1           2           3           4           5           6           7           8           9          10
 IAtWgt=          12          12          12          12          12          12          12          12          12          12
 AtmWgt=  12.0000000  12.0000000  12.0000000  12.0000000  12.0000000  12.0000000  12.0000000  12.0000000  12.0000000  12.0000000
 NucSpn=           0           0           0           0           0           0           0           0           0           0
 AtZEff=   0.0000000   0.0000000   0.0000000   0.0000000   0.0000000   0.0000000   0.0000000   0.0000000   0.0000000   0.0000000
 NQMom=    0.0000000   0.0000000   0.0000000   0.0000000   0.0000000   0.0000000   0.0000000   0.0000000   0.0000000   0.0000000
 NMagM=    0.0000000   0.0000000   0.0000000   0.0000000   0.0000000   0.0000000   0.0000000   0.0000000   0.0000000   0.0000000
 AtZNuc=   6.0000000   6.0000000   6.0000000   6.0000000   6.0000000   6.0000000   6.0000000   6.0000000   6.0000000   6.0000000

  Atom        11          12          13          14          15          16          17          18          19          20
 IAtWgt=           1           1           1           1           1           1          12          12          12          12
 AtmWgt=   1.0078250   1.0078250   1.0078250   1.0078250   1.0078250   1.0078250  12.0000000  12.0000000  12.0000000  12.0000000
 NucSpn=           1           1           1           1           1           1           0           0           0           0
 AtZEff=   0.0000000   0.0000000   0.0000000   0.0000000   0.0000000   0.0000000   0.0000000   0.0000000   0.0000000   0.0000000
 NQMom=    0.0000000   0.0000000   0.0000000   0.0000000   0.0000000   0.0000000   0.0000000   0.0000000   0.0000000   0.0000000
 NMagM=    2.7928460   2.7928460   2.7928460   2.7928460   2.7928460   2.7928460   0.0000000   0.0000000   0.0000000   0.0000000
 AtZNuc=   1.0000000   1.0000000   1.0000000   1.0000000   1.0000000   1.0000000   6.0000000   6.0000000   6.0000000   6.0000000

  Atom        21          22          23          24          25          26          27          28          29          30
 IAtWgt=           1           1          12          12          12          12           1           1          12          12
 AtmWgt=   1.0078250   1.0078250  12.0000000  12.0000000  12.0000000  12.0000000   1.0078250   1.0078250  12.0000000  12.0000000
 NucSpn=           1           1           0           0           0           0           1           1           0           0
 AtZEff=   0.0000000   0.0000000   0.0000000   0.0000000   0.0000000   0.0000000   0.0000000   0.0000000   0.0000000   0.0000000
 NQMom=    0.0000000   0.0000000   0.0000000   0.0000000   0.0000000   0.0000000   0.0000000   0.0000000   0.0000000   0.0000000
 NMagM=    2.7928460   2.7928460   0.0000000   0.0000000   0.0000000   0.0000000   2.7928460   2.7928460   0.0000000   0.0000000
 AtZNuc=   1.0000000   1.0000000   6.0000000   6.0000000   6.0000000   6.0000000   1.0000000   1.0000000   6.0000000   6.0000000

  Atom        31          32          33          34          35          36          37          38          39          40
 IAtWgt=          12          12           1           1           1           1          12          12          12          12
 AtmWgt=  12.0000000  12.0000000   1.0078250   1.0078250   1.0078250   1.0078250  12.0000000  12.0000000  12.0000000  12.0000000
 NucSpn=           0           0           1           1           1           1           0           0           0           0
 AtZEff=   0.0000000   0.0000000   0.0000000   0.0000000   0.0000000   0.0000000   0.0000000   0.0000000   0.0000000   0.0000000
 NQMom=    0.0000000   0.0000000   0.0000000   0.0000000   0.0000000   0.0000000   0.0000000   0.0000000   0.0000000   0.0000000
 NMagM=    0.0000000   0.0000000   2.7928460   2.7928460   2.7928460   2.7928460   0.0000000   0.0000000   0.0000000   0.0000000
 AtZNuc=   6.0000000   6.0000000   1.0000000   1.0000000   1.0000000   1.0000000   6.0000000   6.0000000   6.0000000   6.0000000

  Atom        41          42          43          44          45          46          47          48          49          50
 IAtWgt=          12          12          12          12          12          12           1           1           1           1
 AtmWgt=  12.0000000  12.0000000  12.0000000  12.0000000  12.0000000  12.0000000   1.0078250   1.0078250   1.0078250   1.0078250
 NucSpn=           0           0           0           0           0           0           1           1           1           1
 AtZEff=   0.0000000   0.0000000   0.0000000   0.0000000   0.0000000   0.0000000   0.0000000   0.0000000   0.0000000   0.0000000
 NQMom=    0.0000000   0.0000000   0.0000000   0.0000000   0.0000000   0.0000000   0.0000000   0.0000000   0.0000000   0.0000000
 NMagM=    0.0000000   0.0000000   0.0000000   0.0000000   0.0000000   0.0000000   2.7928460   2.7928460   2.7928460   2.7928460
 AtZNuc=   6.0000000   6.0000000   6.0000000   6.0000000   6.0000000   6.0000000   1.0000000   1.0000000   1.0000000   1.0000000

  Atom        51          52          53          54          55          56          57          58          59          60
 IAtWgt=           1           1          12          12          12          12           1           1          12          12
 AtmWgt=   1.0078250   1.0078250  12.0000000  12.0000000  12.0000000  12.0000000   1.0078250   1.0078250  12.0000000  12.0000000
 NucSpn=           1           1           0           0           0           0           1           1           0           0
 AtZEff=   0.0000000   0.0000000   0.0000000   0.0000000   0.0000000   0.0000000   0.0000000   0.0000000   0.0000000   0.0000000
 NQMom=    0.0000000   0.0000000   0.0000000   0.0000000   0.0000000   0.0000000   0.0000000   0.0000000   0.0000000   0.0000000
 NMagM=    2.7928460   2.7928460   0.0000000   0.0000000   0.0000000   0.0000000   2.7928460   2.7928460   0.0000000   0.0000000
 AtZNuc=   1.0000000   1.0000000   6.0000000   6.0000000   6.0000000   6.0000000   1.0000000   1.0000000   6.0000000   6.0000000

  Atom        61          62          63          64          65          66          67          68          69          70
 IAtWgt=          12          12           1           1          12          12          12          12           1           1
 AtmWgt=  12.0000000  12.0000000   1.0078250   1.0078250  12.0000000  12.0000000  12.0000000  12.0000000   1.0078250   1.0078250
 NucSpn=           0           0           1           1           0           0           0           0           1           1
 AtZEff=   0.0000000   0.0000000   0.0000000   0.0000000   0.0000000   0.0000000   0.0000000   0.0000000   0.0000000   0.0000000
 NQMom=    0.0000000   0.0000000   0.0000000   0.0000000   0.0000000   0.0000000   0.0000000   0.0000000   0.0000000   0.0000000
 NMagM=    0.0000000   0.0000000   2.7928460   2.7928460   0.0000000   0.0000000   0.0000000   0.0000000   2.7928460   2.7928460
 AtZNuc=   6.0000000   6.0000000   1.0000000   1.0000000   6.0000000   6.0000000   6.0000000   6.0000000   1.0000000   1.0000000

  Atom        71          72
 IAtWgt=           1           1
 AtmWgt=   1.0078250   1.0078250
 NucSpn=           1           1
 AtZEff=   0.0000000   0.0000000
 NQMom=    0.0000000   0.0000000
 NMagM=    2.7928460   2.7928460
 AtZNuc=   1.0000000   1.0000000
 Leave Link  101 at Wed Sep 27 16:37:40 2023, MaxMem=  3221225472 cpu:               2.7 elap:               0.1
 (Enter /home/center/opt/aarch64/apps/gaussian16/c01/g16/l202.exe)
 Stoichiometry    C44H28
 Framework group  CS[SG(C4H4),X(C40H24)]
 Deg. of freedom   109
 Full point group                 CS      NOp   2
 Largest Abelian subgroup         CS      NOp   2
 Largest concise Abelian subgroup CS      NOp   2
                         Standard orientation:                         
 ---------------------------------------------------------------------
 Center     Atomic      Atomic             Coordinates (Angstroms)
 Number     Number       Type             X           Y           Z
 ---------------------------------------------------------------------
      1          6           0       -0.333828   -2.828427    3.671276
      2          6           0       -1.787492   -2.828427    3.671276
      3          6           0        0.348073   -2.828427    4.933593
      4          6           0       -2.469394   -2.828427    4.933593
      5          6           0       -0.344614   -2.828427    6.106357
      6          6           0       -1.776707   -2.828427    6.106357
      7          6           0        0.345731   -2.828427    2.463318
      8          6           0       -0.333064   -2.828427    1.224029
      9          6           0       -2.467051   -2.828427    2.463317
     10          6           0       -1.788257   -2.828427    1.224029
     11          1           0        1.433102   -2.828427    4.933260
     12          1           0        1.431448   -2.828427    2.463929
     13          1           0       -3.552767   -2.828427    2.463929
     14          1           0       -3.554422   -2.828427    4.933260
     15          1           0       -2.305956   -2.828427    7.052528
     16          1           0        0.184635   -2.828427    7.052528
     17          6           0        0.346226   -2.828427    0.000000
     18          6           0       -0.333064   -2.828427   -1.224029
     19          6           0       -2.467546   -2.828427    0.000000
     20          6           0       -1.788257   -2.828427   -1.224029
     21          1           0        1.431849   -2.828427    0.000000
     22          1           0       -3.553168   -2.828427    0.000000
     23          6           0        0.345731   -2.828427   -2.463318
     24          6           0       -0.333828   -2.828427   -3.671276
     25          6           0       -2.467051   -2.828427   -2.463317
     26          6           0       -1.787492   -2.828427   -3.671276
     27          1           0        1.431448   -2.828427   -2.463929
     28          1           0       -3.552767   -2.828427   -2.463929
     29          6           0        0.348073   -2.828427   -4.933593
     30          6           0       -0.344614   -2.828427   -6.106357
     31          6           0       -2.469394   -2.828427   -4.933593
     32          6           0       -1.776707   -2.828427   -6.106357
     33          1           0        1.433102   -2.828427   -4.933260
     34          1           0        0.184635   -2.828427   -7.052528
     35          1           0       -2.305956   -2.828427   -7.052528
     36          1           0       -3.554422   -2.828427   -4.933260
     37          6           0        1.060660    3.555259    3.671276
     38          6           0        1.060660    2.101595    3.671276
     39          6           0        1.060660    4.237160    4.933593
     40          6           0        1.060660    1.419694    4.933593
     41          6           0        1.060660    3.544474    6.106357
     42          6           0        1.060660    2.112380    6.106357
     43          6           0        1.060660    4.234818    2.463318
     44          6           0        1.060660    3.556024    1.224029
     45          6           0        1.060660    1.422036    2.463317
     46          6           0        1.060660    2.100830    1.224029
     47          1           0        1.060660    5.322189    4.933260
     48          1           0        1.060660    5.320535    2.463929
     49          1           0        1.060660    0.336320    2.463929
     50          1           0        1.060660    0.334665    4.933260
     51          1           0        1.060660    1.583132    7.052528
     52          1           0        1.060660    4.073722    7.052528
     53          6           0        1.060660    4.235313    0.000000
     54          6           0        1.060660    3.556024   -1.224029
     55          6           0        1.060660    1.421541    0.000000
     56          6           0        1.060660    2.100830   -1.224029
     57          1           0        1.060660    5.320936    0.000000
     58          1           0        1.060660    0.335920    0.000000
     59          6           0        1.060660    4.234818   -2.463318
     60          6           0        1.060660    3.555259   -3.671276
     61          6           0        1.060660    1.422036   -2.463317
     62          6           0        1.060660    2.101595   -3.671276
     63          1           0        1.060660    5.320535   -2.463929
     64          1           0        1.060660    0.336320   -2.463929
     65          6           0        1.060660    4.237160   -4.933593
     66          6           0        1.060660    3.544474   -6.106357
     67          6           0        1.060660    1.419694   -4.933593
     68          6           0        1.060660    2.112380   -6.106357
     69          1           0        1.060660    5.322189   -4.933260
     70          1           0        1.060660    4.073722   -7.052528
     71          1           0        1.060660    1.583132   -7.052528
     72          1           0        1.060660    0.334665   -4.933260
 ---------------------------------------------------------------------
 Rotational constants (GHZ):           0.0865460           0.0563744           0.0359952
 Leave Link  202 at Wed Sep 27 16:37:42 2023, MaxMem=  3221225472 cpu:               0.6 elap:               0.0
 (Enter /home/center/opt/aarch64/apps/gaussian16/c01/g16/l122.exe)
 Counterpoise: doing full-system calculation.
 Leave Link  122 at Wed Sep 27 16:37:44 2023, MaxMem=  3221225472 cpu:               0.2 elap:               0.0
 (Enter /home/center/opt/aarch64/apps/gaussian16/c01/g16/l301.exe)
 Standard basis: 6-311G(d,p) (5D, 7F)
 Ernie: Thresh=  0.10000D-02 Tol=  0.10000D-05 Strict=F.
 There are   528 symmetry adapted cartesian basis functions of A'  symmetry.
 There are   476 symmetry adapted cartesian basis functions of A"  symmetry.
 There are   504 symmetry adapted basis functions of A'  symmetry.
 There are   456 symmetry adapted basis functions of A"  symmetry.
   960 basis functions,  1632 primitive gaussians,  1004 cartesian basis functions
   146 alpha electrons      146 beta electrons
       nuclear repulsion energy      4487.0235179622 Hartrees.
 IExCor=  402 DFT=T Ex+Corr=B3LYP ExCW=0 ScaHFX=  0.200000
 ScaDFX=  0.800000  0.720000  1.000000  0.810000 ScalE2=  1.000000  1.000000
 IRadAn=      5 IRanWt=     -1 IRanGd=            0 ICorTp=0 IEmpDi=131
 NAtoms=   72 NActive=   72 NUniq=   40 SFac= 3.24D+00 NAtFMM=   60 NAOKFM=T Big=F
 Integral buffers will be    131072 words long.
 Raffenetti 2 integral format.
 Two-electron integral symmetry is turned on.
 R6Disp:  Grimme-D3 Dispersion energy=       -0.0709553480 Hartrees.
 Nuclear repulsion after empirical dispersion term =     4486.9525626142 Hartrees.
 Leave Link  301 at Wed Sep 27 16:37:47 2023, MaxMem=  3221225472 cpu:               2.3 elap:               0.1
 (Enter /home/center/opt/aarch64/apps/gaussian16/c01/g16/l302.exe)
 NPDir=0 NMtPBC=     1 NCelOv=     1 NCel=       1 NClECP=     1 NCelD=      1
         NCelK=      1 NCelE2=     1 NClLst=     1 CellRange=     0.0.
 One-electron integrals computed using PRISM.
 One-electron integral symmetry used in STVInt
 NBasis=   960 RedAO= T EigKep=  3.94D-05  NBF=   504   456
 NBsUse=   960 1.00D-06 EigRej= -1.00D+00 NBFU=   504   456
 Precomputing XC quadrature grid using
 IXCGrd= 4 IRadAn=           5 IRanWt=          -1 IRanGd=           0 AccXCQ= 0.00D+00.
 Generated NRdTot=       0 NPtTot=           0 NUsed=           0 NTot=          32
 NSgBfM=   987   987   987   987   987 MxSgAt=    72 MxSgA2=    72.
 Leave Link  302 at Wed Sep 27 16:37:51 2023, MaxMem=  3221225472 cpu:              63.5 elap:               1.9
 (Enter /home/center/opt/aarch64/apps/gaussian16/c01/g16/l303.exe)
 DipDrv:  MaxL=1.
 Leave Link  303 at Wed Sep 27 16:37:54 2023, MaxMem=  3221225472 cpu:              13.7 elap:               0.4
 (Enter /home/center/opt/aarch64/apps/gaussian16/c01/g16/l401.exe)
 ExpMin= 1.03D-01 ExpMax= 4.56D+03 ExpMxC= 6.82D+02 IAcc=3 IRadAn=         5 AccDes= 0.00D+00
 Harris functional with IExCor=  402 and IRadAn=       5 diagonalized for initial guess.
 HarFok:  IExCor=  402 AccDes= 0.00D+00 IRadAn=         5 IDoV= 1 UseB2=F ITyADJ=14
 ICtDFT=  3500011 ScaDFX=  1.000000  1.000000  1.000000  1.000000
 FoFCou: FMM=F IPFlag=           0 FMFlag=      100000 FMFlg1=        2000
         NFxFlg=           0 DoJE=T BraDBF=F KetDBF=T FulRan=T
         wScrn=  0.000000 ICntrl=       500 IOpCl=  0 I1Cent=   200000004 NGrid=           0
         NMat0=    1 NMatS0=      1 NMatT0=    0 NMatD0=    1 NMtDS0=    0 NMtDT0=    0
 Petite list used in FoFCou.
 Harris En= -1694.13523289271    
 JPrj=0 DoOrth=F DoCkMO=F.
 Initial guess orbital symmetries:
       Occupied  (A") (A') (A") (A') (A') (A") (A') (A") (A") (A')
                 (A") (A') (A") (A') (A") (A') (A") (A') (A') (A")
                 (A") (A') (A") (A') (A') (A') (A') (A') (A") (A")
                 (A') (A') (A") (A") (A') (A') (A") (A') (A") (A')
                 (A') (A") (A') (A") (A') (A') (A") (A") (A') (A')
                 (A") (A") (A') (A') (A') (A') (A") (A") (A') (A')
                 (A") (A") (A") (A") (A') (A') (A') (A') (A") (A")
                 (A") (A") (A') (A') (A") (A") (A') (A') (A') (A')
                 (A') (A') (A") (A") (A") (A") (A") (A') (A") (A')
                 (A') (A') (A") (A") (A') (A') (A') (A') (A") (A")
                 (A') (A') (A") (A") (A") (A") (A') (A') (A') (A')
                 (A") (A") (A') (A') (A") (A") (A') (A') (A") (A")
                 (A") (A") (A') (A') (A') (A') (A") (A") (A') (A')
                 (A") (A") (A') (A') (A") (A") (A') (A') (A') (A')
                 (A") (A") (A") (A") (A') (A')
       Virtual   (A') (A') (A") (A") (A") (A") (A') (A') (A') (A')
                 (A") (A") (A') (A') (A") (A") (A') (A") (A') (A')
                 (A') (A') (A") (A') (A") (A') (A") (A") (A') (A')
                 (A") (A') (A") (A") (A') (A") (A') (A") (A') (A')
                 (A") (A') (A") (A") (A') (A') (A") (A') (A') (A')
                 (A') (A") (A') (A") (A') (A') (A') (A") (A") (A')
                 (A") (A") (A") (A") (A') (A') (A") (A") (A') (A")
                 (A') (A") (A') (A') (A") (A') (A") (A") (A') (A")
                 (A') (A') (A') (A") (A') (A') (A") (A') (A") (A")
                 (A') (A") (A') (A') (A") (A') (A") (A') (A") (A")
                 (A") (A") (A') (A') (A") (A') (A') (A") (A') (A')
                 (A') (A') (A") (A') (A') (A") (A') (A") (A') (A')
                 (A") (A') (A") (A") (A') (A") (A") (A') (A") (A')
                 (A") (A") (A") (A") (A') (A") (A') (A') (A") (A')
                 (A") (A') (A') (A') (A') (A') (A") (A') (A") (A')
                 (A') (A') (A") (A') (A") (A') (A") (A") (A') (A")
                 (A') (A") (A') (A") (A") (A') (A") (A') (A') (A")
                 (A") (A') (A") (A') (A") (A') (A') (A") (A') (A")
                 (A') (A") (A") (A') (A') (A") (A') (A') (A') (A')
                 (A') (A") (A") (A") (A') (A") (A') (A') (A") (A")
                 (A") (A') (A') (A") (A') (A') (A") (A') (A') (A")
                 (A") (A') (A") (A") (A') (A') (A") (A") (A") (A')
                 (A') (A") (A') (A") (A") (A") (A') (A') (A') (A')
                 (A") (A') (A') (A") (A') (A") (A') (A") (A') (A")
                 (A") (A") (A') (A') (A") (A') (A') (A") (A') (A')
                 (A") (A') (A") (A") (A") (A') (A') (A") (A") (A')
                 (A") (A') (A') (A') (A") (A") (A") (A') (A') (A")
                 (A') (A") (A") (A") (A') (A") (A') (A') (A") (A")
                 (A") (A') (A') (A') (A') (A') (A") (A") (A') (A")
                 (A') (A') (A") (A') (A') (A") (A") (A") (A') (A")
                 (A") (A") (A") (A') (A') (A') (A") (A') (A') (A')
                 (A') (A") (A") (A') (A") (A") (A") (A") (A') (A')
                 (A') (A') (A") (A') (A') (A') (A") (A") (A') (A")
                 (A") (A") (A') (A") (A') (A') (A") (A') (A') (A")
                 (A") (A') (A') (A") (A") (A') (A") (A') (A") (A')
                 (A') (A') (A") (A") (A') (A') (A') (A") (A') (A")
                 (A') (A') (A') (A") (A') (A") (A") (A") (A") (A")
                 (A") (A") (A") (A') (A') (A') (A") (A') (A') (A')
                 (A") (A") (A') (A') (A') (A') (A') (A") (A') (A")
                 (A') (A") (A') (A") (A') (A') (A") (A") (A") (A")
                 (A') (A') (A") (A') (A") (A') (A') (A") (A") (A')
                 (A') (A') (A") (A") (A') (A') (A") (A') (A") (A')
                 (A') (A') (A') (A") (A') (A') (A") (A") (A') (A")
                 (A") (A") (A") (A') (A") (A") (A') (A') (A') (A")
                 (A") (A") (A') (A") (A') (A") (A') (A") (A') (A")
                 (A') (A') (A') (A') (A") (A") (A') (A') (A") (A")
                 (A") (A') (A') (A") (A') (A") (A") (A') (A") (A')
                 (A") (A') (A") (A') (A") (A") (A') (A") (A') (A')
                 (A") (A') (A') (A') (A") (A') (A") (A") (A") (A')
                 (A") (A') (A") (A") (A") (A") (A") (A") (A') (A')
                 (A') (A") (A') (A") (A') (A') (A') (A') (A") (A')
                 (A") (A') (A') (A') (A") (A") (A") (A") (A') (A')
                 (A") (A') (A") (A') (A") (A") (A') (A') (A") (A")
                 (A') (A') (A') (A') (A") (A") (A') (A") (A") (A')
                 (A") (A") (A') (A') (A') (A') (A") (A") (A") (A")
                 (A') (A") (A") (A') (A") (A") (A') (A') (A') (A')
                 (A') (A") (A') (A") (A') (A") (A") (A') (A') (A')
                 (A") (A") (A") (A") (A') (A') (A") (A') (A") (A')
                 (A') (A') (A') (A') (A") (A") (A") (A') (A') (A')
                 (A") (A') (A") (A') (A') (A') (A') (A") (A") (A")
                 (A") (A') (A") (A') (A') (A") (A') (A") (A") (A")
                 (A') (A') (A') (A") (A") (A') (A') (A') (A") (A")
                 (A") (A") (A') (A") (A') (A') (A') (A") (A') (A")
                 (A') (A') (A') (A") (A') (A') (A") (A') (A") (A")
                 (A') (A") (A") (A") (A") (A') (A") (A") (A') (A')
                 (A') (A') (A') (A') (A") (A') (A") (A') (A') (A")
                 (A') (A") (A") (A") (A') (A") (A') (A') (A') (A")
                 (A') (A") (A") (A') (A") (A') (A") (A") (A') (A')
                 (A") (A") (A') (A') (A') (A') (A") (A") (A") (A")
                 (A') (A') (A') (A') (A") (A') (A") (A') (A") (A")
                 (A') (A') (A") (A") (A') (A") (A') (A") (A') (A")
                 (A') (A") (A") (A") (A') (A') (A') (A') (A") (A")
                 (A') (A') (A") (A") (A') (A') (A") (A') (A') (A")
                 (A') (A") (A') (A") (A") (A') (A") (A') (A') (A')
                 (A") (A") (A') (A') (A") (A") (A') (A') (A') (A')
                 (A") (A") (A') (A') (A") (A") (A') (A') (A") (A")
                 (A") (A") (A') (A') (A") (A") (A') (A") (A') (A")
                 (A') (A') (A") (A") (A') (A') (A') (A') (A") (A")
                 (A") (A") (A') (A') (A") (A") (A') (A') (A') (A')
                 (A") (A") (A") (A") (A') (A') (A') (A') (A") (A")
                 (A') (A') (A") (A") (A') (A') (A") (A") (A') (A')
                 (A') (A") (A') (A")
 The electronic state of the initial guess is 1-A'.
 Leave Link  401 at Wed Sep 27 16:37:59 2023, MaxMem=  3221225472 cpu:             106.8 elap:               2.7
 (Enter /home/center/opt/aarch64/apps/gaussian16/c01/g16/l502.exe)
 Integral symmetry usage will be decided dynamically.
 Closed shell SCF:
 Using DIIS extrapolation, IDIIS=  1040.
 NGot=  3221225472 LenX=  3219153746 LenY=  3218144726
 Requested convergence on RMS density matrix=1.00D-08 within 128 cycles.
 Requested convergence on MAX density matrix=1.00D-06.
 Requested convergence on             energy=1.00D-06.
 No special actions if energy rises.
 Fock matrices will be formed incrementally for  20 cycles.
 Integral accuracy reduced to 1.0D-05 until final iterations.

 Cycle   1  Pass 0  IDiag  1:
 FoFJK:  IHMeth= 1 ICntrl=       0 DoSepK=F KAlg= 0 I1Cent=           0 FoldK=F
 IRaf= 530000000 NMat=       1 IRICut=       1 DoRegI=T DoRafI=F ISym2E= 1 IDoP0=0 IntGTp=1.
 FoFCou: FMM=F IPFlag=           0 FMFlag=      100000 FMFlg1=        2000
         NFxFlg=           0 DoJE=F BraDBF=F KetDBF=F FulRan=T
         wScrn=  0.000000 ICntrl=         0 IOpCl=  0 I1Cent=           0 NGrid=           0
         NMat0=    1 NMatS0=      1 NMatT0=    0 NMatD0=    1 NMtDS0=    0 NMtDT0=    0
 Petite list used in FoFCou.
 E= -1693.15486071229    
 DIIS: error= 4.50D-02 at cycle   1 NSaved=   1.
 NSaved= 1 IEnMin= 1 EnMin= -1693.15486071229     IErMin= 1 ErrMin= 4.50D-02
 ErrMax= 4.50D-02  0.00D+00 EMaxC= 1.00D-01 BMatC= 9.06D-01 BMatP= 9.06D-01
 IDIUse=3 WtCom= 5.50D-01 WtEn= 4.50D-01
 Coeff-Com:  0.100D+01
 Coeff-En:   0.100D+01
 Coeff:      0.100D+01
 Gap=     0.074 Goal=   None    Shift=    0.000
 GapD=    0.074 DampG=0.500 DampE=0.500 DampFc=0.2500 IDamp=-1.
 Damping current iteration by 2.50D-01
 RMSDP=1.79D-03 MaxDP=8.42D-02              OVMax= 1.60D-01

 Cycle   2  Pass 0  IDiag  1:
 RMSU=  4.33D-04    CP:  9.82D-01
 E= -1693.46758785444     Delta-E=       -0.312727142144 Rises=F Damp=T
 DIIS: error= 2.61D-02 at cycle   2 NSaved=   2.
 NSaved= 2 IEnMin= 2 EnMin= -1693.46758785444     IErMin= 2 ErrMin= 2.61D-02
 ErrMax= 2.61D-02  0.00D+00 EMaxC= 1.00D-01 BMatC= 2.99D-01 BMatP= 9.06D-01
 IDIUse=3 WtCom= 7.39D-01 WtEn= 2.61D-01
 Coeff-Com: -0.120D+01 0.220D+01
 Coeff-En:   0.000D+00 0.100D+01
 Coeff:     -0.884D+00 0.188D+01
 Gap=     0.069 Goal=   None    Shift=    0.000
 RMSDP=6.98D-04 MaxDP=3.33D-02 DE=-3.13D-01 OVMax= 8.17D-02

 Cycle   3  Pass 0  IDiag  1:
 RMSU=  4.46D-04    CP:  9.57D-01  2.19D+00
 E= -1694.03890041596     Delta-E=       -0.571312561519 Rises=F Damp=F
 DIIS: error= 5.36D-03 at cycle   3 NSaved=   3.
 NSaved= 3 IEnMin= 3 EnMin= -1694.03890041596     IErMin= 3 ErrMin= 5.36D-03
 ErrMax= 5.36D-03  0.00D+00 EMaxC= 1.00D-01 BMatC= 1.17D-02 BMatP= 2.99D-01
 IDIUse=3 WtCom= 9.46D-01 WtEn= 5.36D-02
 Coeff-Com: -0.249D+00 0.514D+00 0.735D+00
 Coeff-En:   0.000D+00 0.000D+00 0.100D+01
 Coeff:     -0.236D+00 0.487D+00 0.749D+00
 Gap=     0.073 Goal=   None    Shift=    0.000
 RMSDP=2.34D-04 MaxDP=1.25D-02 DE=-5.71D-01 OVMax= 8.59D-02

 Cycle   4  Pass 0  IDiag  1:
 RMSU=  2.03D-04    CP:  9.59D-01  2.13D+00  7.46D-01
 E= -1694.03533128705     Delta-E=        0.003569128904 Rises=F Damp=F
 DIIS: error= 7.65D-03 at cycle   4 NSaved=   4.
 NSaved= 4 IEnMin= 3 EnMin= -1694.03890041596     IErMin= 3 ErrMin= 5.36D-03
 ErrMax= 7.65D-03  0.00D+00 EMaxC= 1.00D-01 BMatC= 1.31D-02 BMatP= 1.17D-02
 IDIUse=3 WtCom= 1.03D-01 WtEn= 8.97D-01
 Coeff-Com: -0.414D-01 0.112D+00 0.518D+00 0.411D+00
 Coeff-En:   0.000D+00 0.000D+00 0.554D+00 0.446D+00
 Coeff:     -0.424D-02 0.115D-01 0.551D+00 0.442D+00
 Gap=     0.071 Goal=   None    Shift=    0.000
 RMSDP=1.42D-04 MaxDP=9.16D-03 DE= 3.57D-03 OVMax= 7.68D-02

 Cycle   5  Pass 0  IDiag  1:
 RMSU=  8.53D-05    CP:  9.58D-01  2.12D+00  8.10D-01  4.58D-01
 E= -1694.04961880212     Delta-E=       -0.014287515064 Rises=F Damp=F
 DIIS: error= 2.19D-03 at cycle   5 NSaved=   5.
 NSaved= 5 IEnMin= 5 EnMin= -1694.04961880212     IErMin= 5 ErrMin= 2.19D-03
 ErrMax= 2.19D-03  0.00D+00 EMaxC= 1.00D-01 BMatC= 1.14D-03 BMatP= 1.17D-02
 IDIUse=3 WtCom= 9.78D-01 WtEn= 2.19D-02
 Coeff-Com: -0.168D-01 0.363D-01 0.249D+00 0.257D+00 0.475D+00
 Coeff-En:   0.000D+00 0.000D+00 0.000D+00 0.522D-01 0.948D+00
 Coeff:     -0.164D-01 0.355D-01 0.243D+00 0.253D+00 0.485D+00
 Gap=     0.071 Goal=   None    Shift=    0.000
 RMSDP=5.06D-05 MaxDP=3.53D-03 DE=-1.43D-02 OVMax= 3.38D-02

 Cycle   6  Pass 0  IDiag  1:
 RMSU=  2.46D-05    CP:  9.58D-01  2.14D+00  8.20D-01  5.46D-01  5.38D-01
 E= -1694.05068305930     Delta-E=       -0.001064257185 Rises=F Damp=F
 DIIS: error= 1.30D-03 at cycle   6 NSaved=   6.
 NSaved= 6 IEnMin= 6 EnMin= -1694.05068305930     IErMin= 6 ErrMin= 1.30D-03
 ErrMax= 1.30D-03  0.00D+00 EMaxC= 1.00D-01 BMatC= 2.54D-04 BMatP= 1.14D-03
 IDIUse=3 WtCom= 9.87D-01 WtEn= 1.30D-02
 Coeff-Com: -0.489D-02 0.751D-02 0.999D-01 0.122D+00 0.352D+00 0.424D+00
 Coeff-En:   0.000D+00 0.000D+00 0.000D+00 0.000D+00 0.196D+00 0.804D+00
 Coeff:     -0.483D-02 0.742D-02 0.986D-01 0.120D+00 0.350D+00 0.429D+00
 Gap=     0.071 Goal=   None    Shift=    0.000
 RMSDP=2.03D-05 MaxDP=1.69D-03 DE=-1.06D-03 OVMax= 1.50D-02

 Cycle   7  Pass 0  IDiag  1:
 RMSU=  8.27D-06    CP:  9.58D-01  2.14D+00  8.22D-01  5.25D-01  6.12D-01
                    CP:  3.15D-01
 E= -1694.05095660436     Delta-E=       -0.000273545055 Rises=F Damp=F
 DIIS: error= 3.58D-04 at cycle   7 NSaved=   7.
 NSaved= 7 IEnMin= 7 EnMin= -1694.05095660436     IErMin= 7 ErrMin= 3.58D-04
 ErrMax= 3.58D-04  0.00D+00 EMaxC= 1.00D-01 BMatC= 2.30D-05 BMatP= 2.54D-04
 IDIUse=3 WtCom= 9.96D-01 WtEn= 3.58D-03
 Coeff-Com: -0.164D-02 0.184D-02 0.538D-01 0.673D-01 0.213D+00 0.300D+00
 Coeff-Com:  0.366D+00
 Coeff-En:   0.000D+00 0.000D+00 0.000D+00 0.000D+00 0.000D+00 0.541D-01
 Coeff-En:   0.946D+00
 Coeff:     -0.163D-02 0.184D-02 0.536D-01 0.671D-01 0.212D+00 0.299D+00
 Coeff:      0.368D+00
 Gap=     0.071 Goal=   None    Shift=    0.000
 RMSDP=5.94D-06 MaxDP=3.75D-04 DE=-2.74D-04 OVMax= 3.22D-03

 Initial convergence to 1.0D-05 achieved.  Increase integral accuracy.
 Cycle   8  Pass 1  IDiag  1:
 E= -1694.05072633576     Delta-E=        0.000230268600 Rises=F Damp=F
 DIIS: error= 9.35D-04 at cycle   1 NSaved=   1.
 NSaved= 1 IEnMin= 1 EnMin= -1694.05072633576     IErMin= 1 ErrMin= 9.35D-04
 ErrMax= 9.35D-04  0.00D+00 EMaxC= 1.00D-01 BMatC= 4.12D-05 BMatP= 4.12D-05
 IDIUse=3 WtCom= 9.91D-01 WtEn= 9.35D-03
 Coeff-Com:  0.100D+01
 Coeff-En:   0.100D+01
 Coeff:      0.100D+01
 Gap=     0.071 Goal=   None    Shift=    0.000
 RMSDP=5.94D-06 MaxDP=3.75D-04 DE= 2.30D-04 OVMax= 2.42D-03

 Cycle   9  Pass 1  IDiag  1:
 RMSU=  3.86D-04    CP:  9.95D-01
 E= -1694.05076278707     Delta-E=       -0.000036451310 Rises=F Damp=F
 DIIS: error= 2.05D-04 at cycle   2 NSaved=   2.
 NSaved= 2 IEnMin= 2 EnMin= -1694.05076278707     IErMin= 2 ErrMin= 2.05D-04
 ErrMax= 2.05D-04  0.00D+00 EMaxC= 1.00D-01 BMatC= 4.91D-06 BMatP= 4.12D-05
 IDIUse=3 WtCom= 9.98D-01 WtEn= 2.05D-03
 Coeff-Com:  0.131D+00 0.869D+00
 Coeff-En:   0.000D+00 0.100D+01
 Coeff:      0.130D+00 0.870D+00
 Gap=     0.071 Goal=   None    Shift=    0.000
 RMSDP=8.70D-06 MaxDP=5.82D-04 DE=-3.65D-05 OVMax= 5.14D-03

 Cycle  10  Pass 1  IDiag  1:
 RMSU=  8.13D-06    CP:  9.95D-01  1.01D+00
 E= -1694.05073503843     Delta-E=        0.000027748637 Rises=F Damp=F
 DIIS: error= 5.06D-04 at cycle   3 NSaved=   3.
 NSaved= 3 IEnMin= 2 EnMin= -1694.05076278707     IErMin= 2 ErrMin= 2.05D-04
 ErrMax= 5.06D-04  0.00D+00 EMaxC= 1.00D-01 BMatC= 2.67D-05 BMatP= 4.91D-06
 IDIUse=3 WtCom= 3.08D-01 WtEn= 6.92D-01
 Coeff-Com: -0.171D-02 0.702D+00 0.300D+00
 Coeff-En:   0.000D+00 0.774D+00 0.226D+00
 Coeff:     -0.528D-03 0.752D+00 0.249D+00
 Gap=     0.071 Goal=   None    Shift=    0.000
 RMSDP=4.75D-06 MaxDP=3.21D-04 DE= 2.77D-05 OVMax= 3.02D-03

 Cycle  11  Pass 1  IDiag  1:
 RMSU=  1.11D-06    CP:  9.95D-01  1.01D+00  4.39D-01
 E= -1694.05076760851     Delta-E=       -0.000032570078 Rises=F Damp=F
 DIIS: error= 8.49D-05 at cycle   4 NSaved=   4.
 NSaved= 4 IEnMin= 4 EnMin= -1694.05076760851     IErMin= 4 ErrMin= 8.49D-05
 ErrMax= 8.49D-05  0.00D+00 EMaxC= 1.00D-01 BMatC= 1.08D-06 BMatP= 4.91D-06
 IDIUse=1 WtCom= 1.00D+00 WtEn= 0.00D+00
 Coeff-Com: -0.388D-02 0.450D+00 0.108D+00 0.446D+00
 Coeff:     -0.388D-02 0.450D+00 0.108D+00 0.446D+00
 Gap=     0.071 Goal=   None    Shift=    0.000
 RMSDP=1.11D-06 MaxDP=8.04D-05 DE=-3.26D-05 OVMax= 6.34D-04

 Cycle  12  Pass 1  IDiag  1:
 RMSU=  4.13D-07    CP:  9.95D-01  1.01D+00  3.13D-01  9.47D-01
 E= -1694.05076888227     Delta-E=       -0.000001273761 Rises=F Damp=F
 DIIS: error= 4.62D-06 at cycle   5 NSaved=   5.
 NSaved= 5 IEnMin= 5 EnMin= -1694.05076888227     IErMin= 5 ErrMin= 4.62D-06
 ErrMax= 4.62D-06  0.00D+00 EMaxC= 1.00D-01 BMatC= 3.21D-09 BMatP= 1.08D-06
 IDIUse=1 WtCom= 1.00D+00 WtEn= 0.00D+00
 Coeff-Com: -0.220D-02 0.246D+00 0.563D-01 0.259D+00 0.441D+00
 Coeff:     -0.220D-02 0.246D+00 0.563D-01 0.259D+00 0.441D+00
 Gap=     0.071 Goal=   None    Shift=    0.000
 RMSDP=8.94D-08 MaxDP=4.57D-06 DE=-1.27D-06 OVMax= 2.98D-05

 Cycle  13  Pass 1  IDiag  1:
 RMSU=  8.32D-08    CP:  9.95D-01  1.01D+00  3.13D-01  9.62D-01  9.35D-01
 E= -1694.05076888586     Delta-E=       -0.000000003590 Rises=F Damp=F
 DIIS: error= 1.90D-06 at cycle   6 NSaved=   6.
 NSaved= 6 IEnMin= 6 EnMin= -1694.05076888586     IErMin= 6 ErrMin= 1.90D-06
 ErrMax= 1.90D-06  0.00D+00 EMaxC= 1.00D-01 BMatC= 6.21D-10 BMatP= 3.21D-09
 IDIUse=1 WtCom= 1.00D+00 WtEn= 0.00D+00
 Coeff-Com: -0.858D-03 0.929D-01 0.204D-01 0.102D+00 0.301D+00 0.485D+00
 Coeff:     -0.858D-03 0.929D-01 0.204D-01 0.102D+00 0.301D+00 0.485D+00
 Gap=     0.071 Goal=   None    Shift=    0.000
 RMSDP=2.74D-08 MaxDP=1.65D-06 DE=-3.59D-09 OVMax= 1.12D-05

 Cycle  14  Pass 1  IDiag  1:
 RMSU=  1.99D-08    CP:  9.95D-01  1.01D+00  3.12D-01  9.64D-01  9.59D-01
                    CP:  8.18D-01
 E= -1694.05076888654     Delta-E=       -0.000000000683 Rises=F Damp=F
 DIIS: error= 3.04D-07 at cycle   7 NSaved=   7.
 NSaved= 7 IEnMin= 7 EnMin= -1694.05076888654     IErMin= 7 ErrMin= 3.04D-07
 ErrMax= 3.04D-07  0.00D+00 EMaxC= 1.00D-01 BMatC= 2.52D-11 BMatP= 6.21D-10
 IDIUse=1 WtCom= 1.00D+00 WtEn= 0.00D+00
 Coeff-Com: -0.259D-03 0.273D-01 0.584D-02 0.309D-01 0.116D+00 0.238D+00
 Coeff-Com:  0.582D+00
 Coeff:     -0.259D-03 0.273D-01 0.584D-02 0.309D-01 0.116D+00 0.238D+00
 Coeff:      0.582D+00
 Gap=     0.071 Goal=   None    Shift=    0.000
 RMSDP=1.06D-08 MaxDP=4.68D-07 DE=-6.83D-10 OVMax= 5.05D-06

 Cycle  15  Pass 1  IDiag  1:
 RMSU=  7.83D-09    CP:  9.95D-01  1.01D+00  3.12D-01  9.66D-01  9.60D-01
                    CP:  8.30D-01  6.84D-01
 E= -1694.05076888654     Delta-E=        0.000000000004 Rises=F Damp=F
 DIIS: error= 3.11D-07 at cycle   8 NSaved=   8.
 NSaved= 8 IEnMin= 7 EnMin= -1694.05076888654     IErMin= 7 ErrMin= 3.04D-07
 ErrMax= 3.11D-07  0.00D+00 EMaxC= 1.00D-01 BMatC= 1.79D-11 BMatP= 2.52D-11
 IDIUse=1 WtCom= 1.00D+00 WtEn= 0.00D+00
 Coeff-Com: -0.237D-05-0.290D-03-0.206D-03 0.619D-03 0.249D-01 0.816D-01
 Coeff-Com:  0.458D+00 0.435D+00
 Coeff:     -0.237D-05-0.290D-03-0.206D-03 0.619D-03 0.249D-01 0.816D-01
 Coeff:      0.458D+00 0.435D+00
 Gap=     0.071 Goal=   None    Shift=    0.000
 RMSDP=5.74D-09 MaxDP=2.93D-07 DE= 3.64D-12 OVMax= 3.50D-06

 SCF Done:  E(RB3LYP) =  -1694.05076889     A.U. after   15 cycles
            NFock= 15  Conv=0.57D-08     -V/T= 2.0044
 KE= 1.686674552756D+03 PE=-1.290426299367D+04 EE= 5.036585109410D+03
 Leave Link  502 at Wed Sep 27 16:39:37 2023, MaxMem=  3221225472 cpu:            3454.2 elap:              96.2
 (Enter /home/center/opt/aarch64/apps/gaussian16/c01/g16/l601.exe)
 Copying SCF densities to generalized density rwf, IOpCl= 0 IROHF=0.

 **********************************************************************

            Population analysis using the SCF Density.

 **********************************************************************

 Orbital symmetries:
       Occupied  (A") (A') (A') (A") (A") (A') (A") (A') (A') (A')
                 (A') (A") (A") (A') (A") (A') (A") (A') (A") (A')
                 (A') (A") (A") (A') (A") (A') (A") (A') (A") (A')
                 (A") (A') (A') (A") (A') (A') (A") (A') (A") (A')
                 (A") (A') (A") (A') (A') (A') (A") (A") (A') (A')
                 (A") (A") (A') (A') (A') (A") (A') (A") (A') (A')
                 (A") (A") (A") (A") (A') (A') (A') (A') (A") (A")
                 (A") (A") (A') (A') (A") (A') (A") (A') (A') (A')
                 (A') (A") (A") (A') (A") (A") (A') (A') (A") (A")
                 (A') (A') (A') (A") (A") (A') (A") (A") (A') (A')
                 (A') (A") (A') (A') (A') (A") (A') (A') (A") (A')
                 (A") (A') (A") (A") (A") (A") (A") (A") (A') (A')
                 (A') (A') (A') (A') (A") (A") (A") (A') (A") (A")
                 (A') (A") (A') (A') (A") (A") (A') (A') (A') (A')
                 (A") (A") (A") (A") (A') (A')
       Virtual   (A') (A') (A") (A") (A") (A") (A') (A') (A') (A")
                 (A') (A') (A") (A') (A") (A') (A') (A') (A") (A")
                 (A') (A') (A") (A') (A") (A") (A') (A") (A') (A")
                 (A") (A') (A") (A') (A') (A") (A") (A') (A") (A')
                 (A') (A') (A") (A') (A') (A") (A") (A") (A') (A")
                 (A') (A') (A') (A') (A') (A') (A') (A") (A') (A")
                 (A") (A") (A") (A") (A') (A') (A") (A") (A') (A")
                 (A') (A') (A") (A') (A") (A') (A") (A") (A') (A")
                 (A') (A') (A') (A') (A") (A') (A") (A') (A') (A")
                 (A') (A') (A") (A') (A") (A") (A') (A") (A") (A")
                 (A') (A") (A') (A') (A') (A") (A') (A') (A") (A")
                 (A") (A') (A") (A') (A") (A') (A") (A") (A') (A')
                 (A') (A") (A') (A') (A") (A') (A') (A') (A") (A')
                 (A') (A") (A") (A') (A') (A') (A") (A') (A") (A')
                 (A") (A') (A") (A') (A") (A') (A") (A') (A") (A')
                 (A") (A") (A') (A") (A") (A') (A") (A') (A') (A")
                 (A') (A") (A') (A") (A') (A') (A") (A") (A') (A")
                 (A") (A') (A") (A') (A') (A') (A') (A') (A") (A")
                 (A') (A') (A") (A') (A") (A") (A') (A") (A") (A')
                 (A") (A') (A") (A") (A') (A') (A") (A') (A") (A')
                 (A') (A") (A') (A") (A') (A") (A') (A') (A") (A')
                 (A") (A') (A') (A") (A") (A') (A") (A') (A") (A')
                 (A") (A') (A") (A") (A') (A") (A') (A') (A") (A")
                 (A') (A") (A') (A') (A') (A") (A') (A") (A") (A')
                 (A") (A") (A') (A') (A') (A") (A') (A") (A') (A")
                 (A') (A") (A') (A") (A") (A') (A') (A") (A') (A")
                 (A") (A') (A") (A') (A') (A') (A") (A') (A') (A")
                 (A") (A') (A") (A") (A") (A') (A') (A") (A") (A')
                 (A") (A') (A') (A') (A") (A") (A') (A") (A') (A")
                 (A') (A') (A") (A') (A") (A") (A') (A") (A') (A')
                 (A") (A") (A") (A') (A") (A') (A") (A') (A') (A')
                 (A') (A") (A') (A') (A") (A") (A") (A') (A") (A")
                 (A') (A") (A') (A') (A') (A") (A') (A') (A") (A")
                 (A") (A") (A') (A") (A') (A") (A') (A') (A") (A')
                 (A") (A') (A') (A') (A") (A") (A') (A') (A") (A')
                 (A') (A") (A") (A") (A') (A') (A') (A') (A') (A')
                 (A") (A") (A') (A") (A') (A") (A") (A") (A") (A")
                 (A') (A") (A") (A') (A") (A') (A") (A') (A') (A')
                 (A") (A") (A') (A') (A") (A') (A') (A") (A') (A')
                 (A') (A') (A") (A") (A') (A') (A") (A") (A") (A')
                 (A') (A") (A") (A') (A") (A') (A') (A') (A") (A")
                 (A') (A') (A") (A') (A') (A") (A") (A") (A') (A')
                 (A') (A") (A') (A') (A") (A') (A') (A") (A') (A")
                 (A") (A") (A") (A') (A") (A') (A') (A") (A') (A")
                 (A') (A") (A") (A') (A") (A") (A') (A') (A") (A")
                 (A') (A') (A") (A') (A") (A') (A') (A") (A") (A')
                 (A") (A") (A') (A') (A') (A") (A") (A') (A') (A')
                 (A") (A") (A') (A") (A") (A') (A') (A") (A") (A')
                 (A') (A") (A") (A') (A') (A') (A") (A") (A') (A")
                 (A") (A") (A') (A") (A") (A") (A") (A") (A') (A')
                 (A") (A') (A') (A') (A") (A') (A') (A') (A") (A")
                 (A') (A') (A') (A') (A") (A") (A') (A") (A') (A")
                 (A") (A") (A') (A") (A') (A') (A") (A') (A') (A")
                 (A") (A') (A") (A") (A") (A') (A") (A') (A') (A')
                 (A") (A") (A') (A') (A") (A') (A") (A') (A") (A")
                 (A") (A') (A") (A') (A") (A') (A") (A') (A') (A')
                 (A") (A') (A") (A') (A') (A") (A') (A") (A") (A")
                 (A') (A') (A') (A') (A') (A') (A") (A') (A") (A')
                 (A") (A") (A") (A') (A') (A") (A') (A") (A") (A')
                 (A") (A') (A") (A") (A') (A") (A') (A") (A') (A')
                 (A") (A') (A") (A') (A') (A") (A') (A') (A") (A')
                 (A') (A") (A') (A") (A') (A') (A') (A") (A') (A")
                 (A") (A") (A') (A') (A") (A') (A") (A') (A") (A")
                 (A') (A") (A') (A") (A') (A') (A') (A') (A") (A")
                 (A') (A") (A") (A") (A') (A") (A') (A") (A') (A')
                 (A") (A') (A') (A") (A') (A') (A') (A") (A') (A")
                 (A") (A") (A') (A') (A") (A") (A') (A') (A') (A")
                 (A') (A") (A') (A") (A") (A') (A") (A") (A') (A')
                 (A') (A') (A") (A") (A') (A") (A') (A") (A") (A")
                 (A') (A') (A") (A') (A') (A') (A") (A') (A") (A")
                 (A') (A') (A") (A") (A') (A") (A') (A") (A') (A")
                 (A') (A") (A") (A") (A') (A') (A') (A') (A") (A")
                 (A') (A') (A") (A') (A") (A') (A') (A') (A") (A")
                 (A") (A') (A') (A") (A") (A') (A') (A") (A') (A")
                 (A') (A") (A') (A") (A') (A') (A") (A') (A') (A')
                 (A") (A') (A") (A') (A") (A") (A') (A') (A") (A")
                 (A") (A') (A") (A") (A') (A") (A') (A") (A') (A")
                 (A') (A') (A") (A") (A') (A') (A') (A') (A") (A")
                 (A") (A") (A') (A') (A") (A') (A") (A') (A') (A')
                 (A") (A") (A") (A") (A') (A') (A') (A") (A') (A")
                 (A') (A') (A") (A') (A") (A') (A") (A') (A") (A')
                 (A') (A") (A') (A")
 The electronic state is 1-A'.
 Alpha  occ. eigenvalues --  -10.19406 -10.19406 -10.19328 -10.19327 -10.19321
 Alpha  occ. eigenvalues --  -10.19321 -10.19223 -10.19223 -10.18417 -10.18393
 Alpha  occ. eigenvalues --  -10.18362 -10.18362 -10.18361 -10.18360 -10.18337
 Alpha  occ. eigenvalues --  -10.18337 -10.18328 -10.18328 -10.18280 -10.18280
 Alpha  occ. eigenvalues --  -10.18274 -10.18273 -10.18261 -10.18261 -10.18236
 Alpha  occ. eigenvalues --  -10.18236 -10.18202 -10.18202 -10.18147 -10.18147
 Alpha  occ. eigenvalues --  -10.17371 -10.17371 -10.17352 -10.17337 -10.17337
 Alpha  occ. eigenvalues --  -10.17305 -10.17305 -10.17299 -10.17268 -10.17268
 Alpha  occ. eigenvalues --  -10.17267 -10.17266 -10.17195 -10.17195  -0.89785
 Alpha  occ. eigenvalues --   -0.88745  -0.88299  -0.87288  -0.85978  -0.84980
 Alpha  occ. eigenvalues --   -0.82842  -0.81849  -0.80266  -0.79212  -0.78947
 Alpha  occ. eigenvalues --   -0.78749  -0.77958  -0.77725  -0.76420  -0.75410
 Alpha  occ. eigenvalues --   -0.74682  -0.73687  -0.73328  -0.72323  -0.69628
 Alpha  occ. eigenvalues --   -0.68612  -0.67770  -0.66774  -0.63158  -0.62788
 Alpha  occ. eigenvalues --   -0.62152  -0.61809  -0.61545  -0.60485  -0.60392
 Alpha  occ. eigenvalues --   -0.59722  -0.59356  -0.58712  -0.58109  -0.57123
 Alpha  occ. eigenvalues --   -0.53130  -0.52994  -0.52709  -0.52140  -0.51983
 Alpha  occ. eigenvalues --   -0.51730  -0.50072  -0.49061  -0.48928  -0.47963
 Alpha  occ. eigenvalues --   -0.47572  -0.46589  -0.46544  -0.46010  -0.45902
 Alpha  occ. eigenvalues --   -0.45485  -0.44979  -0.44904  -0.44345  -0.43595
 Alpha  occ. eigenvalues --   -0.43373  -0.42992  -0.42603  -0.42241  -0.41988
 Alpha  occ. eigenvalues --   -0.41978  -0.41819  -0.41191  -0.41127  -0.40976
 Alpha  occ. eigenvalues --   -0.40817  -0.40800  -0.40111  -0.40021  -0.39843
 Alpha  occ. eigenvalues --   -0.39013  -0.38608  -0.37613  -0.37170  -0.36746
 Alpha  occ. eigenvalues --   -0.36175  -0.35964  -0.35805  -0.34945  -0.34521
 Alpha  occ. eigenvalues --   -0.34223  -0.33521  -0.33487  -0.33346  -0.33225
 Alpha  occ. eigenvalues --   -0.32628  -0.32378  -0.31849  -0.31016  -0.30073
 Alpha  occ. eigenvalues --   -0.29087  -0.28825  -0.27860  -0.27053  -0.26053
 Alpha  occ. eigenvalues --   -0.24792  -0.23807  -0.23021  -0.22012  -0.18309
 Alpha  occ. eigenvalues --   -0.17269
 Alpha virt. eigenvalues --   -0.10209  -0.09173  -0.04916  -0.03899  -0.03196
 Alpha virt. eigenvalues --   -0.02188  -0.00650   0.00415   0.01628   0.01688
 Alpha virt. eigenvalues --    0.02206   0.02617   0.02926   0.03612   0.03842
 Alpha virt. eigenvalues --    0.03867   0.04339   0.05217   0.05450   0.05727
 Alpha virt. eigenvalues --    0.05864   0.06375   0.07116   0.07568   0.07697
 Alpha virt. eigenvalues --    0.07883   0.08794   0.08850   0.08976   0.09422
 Alpha virt. eigenvalues --    0.09981   0.10100   0.10841   0.10970   0.11079
 Alpha virt. eigenvalues --    0.11711   0.12521   0.12864   0.13276   0.14084
 Alpha virt. eigenvalues --    0.14100   0.14685   0.15473   0.15584   0.17699
 Alpha virt. eigenvalues --    0.17966   0.18353   0.18674   0.19392   0.19476
 Alpha virt. eigenvalues --    0.19504   0.20036   0.22414   0.22621   0.23478
 Alpha virt. eigenvalues --    0.23631   0.24089   0.24238   0.25030   0.25206
 Alpha virt. eigenvalues --    0.25735   0.26097   0.27115   0.27284   0.27661
 Alpha virt. eigenvalues --    0.27862   0.28017   0.28126   0.28712   0.28754
 Alpha virt. eigenvalues --    0.28776   0.29272   0.29597   0.29929   0.30112
 Alpha virt. eigenvalues --    0.30366   0.30766   0.31222   0.31282   0.31788
 Alpha virt. eigenvalues --    0.32534   0.34138   0.34349   0.35002   0.36098
 Alpha virt. eigenvalues --    0.36170   0.36693   0.36798   0.37159   0.37227
 Alpha virt. eigenvalues --    0.37352   0.37531   0.37575   0.37832   0.37975
 Alpha virt. eigenvalues --    0.38266   0.38394   0.38546   0.38770   0.39201
 Alpha virt. eigenvalues --    0.39374   0.39567   0.39618   0.39882   0.40143
 Alpha virt. eigenvalues --    0.40372   0.40708   0.40792   0.40812   0.41526
 Alpha virt. eigenvalues --    0.41921   0.42036   0.42091   0.42277   0.42299
 Alpha virt. eigenvalues --    0.42413   0.42507   0.42707   0.42926   0.43274
 Alpha virt. eigenvalues --    0.43616   0.43719   0.44026   0.44565   0.44803
 Alpha virt. eigenvalues --    0.44967   0.45028   0.45415   0.45589   0.45738
 Alpha virt. eigenvalues --    0.45883   0.45944   0.46016   0.46097   0.46303
 Alpha virt. eigenvalues --    0.46632   0.46782   0.47022   0.47089   0.47351
 Alpha virt. eigenvalues --    0.47456   0.47635   0.48058   0.48411   0.48727
 Alpha virt. eigenvalues --    0.48998   0.49064   0.49164   0.49262   0.49684
 Alpha virt. eigenvalues --    0.49852   0.50150   0.50241   0.50777   0.51233
 Alpha virt. eigenvalues --    0.51939   0.51979   0.52015   0.52309   0.52770
 Alpha virt. eigenvalues --    0.53747   0.53994   0.54076   0.54184   0.54320
 Alpha virt. eigenvalues --    0.55428   0.56019   0.56823   0.57374   0.57420
 Alpha virt. eigenvalues --    0.58577   0.58627   0.59058   0.59556   0.59946
 Alpha virt. eigenvalues --    0.60283   0.60605   0.61071   0.61469   0.61505
 Alpha virt. eigenvalues --    0.61514   0.61525   0.62002   0.62117   0.62204
 Alpha virt. eigenvalues --    0.62387   0.62697   0.62923   0.63406   0.63458
 Alpha virt. eigenvalues --    0.63954   0.64289   0.64299   0.64679   0.65321
 Alpha virt. eigenvalues --    0.65554   0.65710   0.65903   0.66159   0.66275
 Alpha virt. eigenvalues --    0.67161   0.67359   0.68458   0.69799   0.70277
 Alpha virt. eigenvalues --    0.70453   0.70658   0.71425   0.71579   0.71982
 Alpha virt. eigenvalues --    0.72264   0.72343   0.72752   0.72948   0.73589
 Alpha virt. eigenvalues --    0.73867   0.74139   0.74641   0.75204   0.76094
 Alpha virt. eigenvalues --    0.76275   0.76647   0.76901   0.77268   0.77412
 Alpha virt. eigenvalues --    0.78110   0.78745   0.79142   0.79231   0.79781
 Alpha virt. eigenvalues --    0.80010   0.80423   0.80466   0.80890   0.81166
 Alpha virt. eigenvalues --    0.81703   0.81952   0.82359   0.82653   0.82796
 Alpha virt. eigenvalues --    0.83607   0.83887   0.84009   0.84255   0.84758
 Alpha virt. eigenvalues --    0.85229   0.85613   0.87082   0.87197   0.88093
 Alpha virt. eigenvalues --    0.89456   0.89549   0.90013   0.90203   0.90702
 Alpha virt. eigenvalues --    0.91297   0.91520   0.91710   0.92942   0.93051
 Alpha virt. eigenvalues --    0.93167   0.94344   0.94730   0.95222   0.95650
 Alpha virt. eigenvalues --    0.95870   0.96083   0.96402   0.97017   0.97077
 Alpha virt. eigenvalues --    0.97605   0.97823   0.98178   0.99121   0.99341
 Alpha virt. eigenvalues --    0.99851   1.00605   1.00801   1.01694   1.02511
 Alpha virt. eigenvalues --    1.02856   1.02931   1.03248   1.03419   1.03733
 Alpha virt. eigenvalues --    1.04263   1.04521   1.05085   1.05176   1.05365
 Alpha virt. eigenvalues --    1.05747   1.05915   1.05938   1.05998   1.06125
 Alpha virt. eigenvalues --    1.06556   1.07109   1.07546   1.07602   1.07980
 Alpha virt. eigenvalues --    1.08078   1.08794   1.09012   1.09702   1.09826
 Alpha virt. eigenvalues --    1.10143   1.10615   1.10921   1.11664   1.12635
 Alpha virt. eigenvalues --    1.12965   1.13185   1.13574   1.13785   1.14104
 Alpha virt. eigenvalues --    1.14873   1.15094   1.15294   1.15314   1.15923
 Alpha virt. eigenvalues --    1.17044   1.17941   1.18041   1.19228   1.20200
 Alpha virt. eigenvalues --    1.21051   1.21411   1.22724   1.22809   1.23188
 Alpha virt. eigenvalues --    1.23900   1.25179   1.27884   1.28274   1.30229
 Alpha virt. eigenvalues --    1.30342   1.30828   1.32435   1.32585   1.33164
 Alpha virt. eigenvalues --    1.33617   1.34856   1.34904   1.36056   1.37662
 Alpha virt. eigenvalues --    1.38320   1.39280   1.39809   1.39965   1.40054
 Alpha virt. eigenvalues --    1.40508   1.40519   1.40658   1.41341   1.42889
 Alpha virt. eigenvalues --    1.42951   1.43602   1.43623   1.44042   1.45281
 Alpha virt. eigenvalues --    1.45426   1.45611   1.46003   1.46757   1.46916
 Alpha virt. eigenvalues --    1.47484   1.47872   1.48109   1.48878   1.49265
 Alpha virt. eigenvalues --    1.49311   1.49520   1.49886   1.50035   1.50120
 Alpha virt. eigenvalues --    1.50730   1.51139   1.51201   1.52528   1.52957
 Alpha virt. eigenvalues --    1.53151   1.53890   1.54084   1.54312   1.54447
 Alpha virt. eigenvalues --    1.54481   1.54693   1.54864   1.54917   1.55400
 Alpha virt. eigenvalues --    1.55930   1.56826   1.57486   1.57624   1.57996
 Alpha virt. eigenvalues --    1.59097   1.59121   1.59430   1.60313   1.60407
 Alpha virt. eigenvalues --    1.60675   1.61085   1.62393   1.62957   1.63451
 Alpha virt. eigenvalues --    1.64217   1.65406   1.65892   1.66362   1.67339
 Alpha virt. eigenvalues --    1.69304   1.69518   1.69961   1.70306   1.70371
 Alpha virt. eigenvalues --    1.70618   1.70855   1.71721   1.72089   1.72229
 Alpha virt. eigenvalues --    1.72841   1.73102   1.73247   1.73362   1.73597
 Alpha virt. eigenvalues --    1.73607   1.73664   1.73942   1.74355   1.74512
 Alpha virt. eigenvalues --    1.77122   1.78090   1.78411   1.79141   1.79404
 Alpha virt. eigenvalues --    1.79795   1.79848   1.80031   1.80401   1.81364
 Alpha virt. eigenvalues --    1.81488   1.81541   1.82076   1.82278   1.82533
 Alpha virt. eigenvalues --    1.82705   1.84059   1.84489   1.84637   1.84817
 Alpha virt. eigenvalues --    1.85377   1.86223   1.87152   1.87204   1.87339
 Alpha virt. eigenvalues --    1.87705   1.88008   1.88163   1.88197   1.88320
 Alpha virt. eigenvalues --    1.88689   1.88812   1.89061   1.89832   1.90828
 Alpha virt. eigenvalues --    1.91199   1.91263   1.91440   1.92126   1.92296
 Alpha virt. eigenvalues --    1.92509   1.92784   1.92875   1.92979   1.93212
 Alpha virt. eigenvalues --    1.93320   1.93983   1.94013   1.94235   1.94851
 Alpha virt. eigenvalues --    1.95136   1.95217   1.95474   1.96074   1.97364
 Alpha virt. eigenvalues --    1.97905   1.99636   1.99982   2.00362   2.00547
 Alpha virt. eigenvalues --    2.00684   2.01017   2.01618   2.02580   2.03454
 Alpha virt. eigenvalues --    2.03632   2.05434   2.06985   2.07916   2.08861
 Alpha virt. eigenvalues --    2.08934   2.09449   2.09883   2.09981   2.10255
 Alpha virt. eigenvalues --    2.10421   2.11957   2.12762   2.13864   2.14709
 Alpha virt. eigenvalues --    2.15353   2.16006   2.16247   2.16568   2.16824
 Alpha virt. eigenvalues --    2.17749   2.19517   2.20480   2.20802   2.21410
 Alpha virt. eigenvalues --    2.21768   2.22248   2.22428   2.23079   2.23271
 Alpha virt. eigenvalues --    2.24303   2.24332   2.25071   2.26356   2.26518
 Alpha virt. eigenvalues --    2.26861   2.27162   2.27491   2.27748   2.27819
 Alpha virt. eigenvalues --    2.27949   2.28814   2.29294   2.29710   2.30808
 Alpha virt. eigenvalues --    2.33207   2.34345   2.35414   2.36309   2.38968
 Alpha virt. eigenvalues --    2.39159   2.39946   2.40070   2.40612   2.41321
 Alpha virt. eigenvalues --    2.42714   2.42773   2.43492   2.43860   2.45430
 Alpha virt. eigenvalues --    2.45632   2.46369   2.46371   2.46606   2.47866
 Alpha virt. eigenvalues --    2.51167   2.52323   2.52458   2.53142   2.53589
 Alpha virt. eigenvalues --    2.53705   2.54364   2.54589   2.55532   2.55802
 Alpha virt. eigenvalues --    2.56494   2.57453   2.58473   2.58804   2.59256
 Alpha virt. eigenvalues --    2.59452   2.59503   2.60257   2.60282   2.60627
 Alpha virt. eigenvalues --    2.60638   2.61150   2.61532   2.61632   2.62239
 Alpha virt. eigenvalues --    2.62306   2.62682   2.62986   2.63564   2.64100
 Alpha virt. eigenvalues --    2.64100   2.64530   2.65486   2.65806   2.65873
 Alpha virt. eigenvalues --    2.66544   2.66800   2.66973   2.67277   2.67927
 Alpha virt. eigenvalues --    2.68097   2.68347   2.68752   2.68858   2.69159
 Alpha virt. eigenvalues --    2.69372   2.69401   2.69436   2.69823   2.70062
 Alpha virt. eigenvalues --    2.70249   2.70535   2.71071   2.71689   2.72855
 Alpha virt. eigenvalues --    2.73295   2.74195   2.74221   2.74811   2.75273
 Alpha virt. eigenvalues --    2.75418   2.76342   2.77214   2.77397   2.77491
 Alpha virt. eigenvalues --    2.77636   2.77898   2.78156   2.78492   2.78787
 Alpha virt. eigenvalues --    2.78915   2.79438   2.80557   2.81042   2.81412
 Alpha virt. eigenvalues --    2.81866   2.82938   2.84105   2.84545   2.85980
 Alpha virt. eigenvalues --    2.86288   2.86365   2.86618   2.88001   2.88101
 Alpha virt. eigenvalues --    2.88851   2.89803   2.89841   2.90657   2.91646
 Alpha virt. eigenvalues --    2.92472   2.92840   2.93319   2.94124   2.94281
 Alpha virt. eigenvalues --    2.95018   2.95385   2.95681   2.96877   2.97302
 Alpha virt. eigenvalues --    2.98858   3.00079   3.00443   3.02886   3.03768
 Alpha virt. eigenvalues --    3.04244   3.05598   3.06620   3.07436   3.07762
 Alpha virt. eigenvalues --    3.08105   3.08645   3.15699   3.15762   3.16198
 Alpha virt. eigenvalues --    3.16852   3.16957   3.17525   3.19646   3.19799
 Alpha virt. eigenvalues --    3.20598   3.20840   3.23224   3.24289   3.28879
 Alpha virt. eigenvalues --    3.29448   3.29915   3.30356   3.31432   3.32441
 Alpha virt. eigenvalues --    3.34858   3.35424   3.35621   3.36123   3.36162
 Alpha virt. eigenvalues --    3.36434   3.36625   3.36912   3.37708   3.38765
 Alpha virt. eigenvalues --    3.39601   3.40663   3.41003   3.42579   3.44855
 Alpha virt. eigenvalues --    3.45110   3.45654   3.46128   3.47911   3.48101
 Alpha virt. eigenvalues --    3.48987   3.49228   3.50281   3.51074   3.52864
 Alpha virt. eigenvalues --    3.53975   3.57123   3.58197   3.58470   3.59357
 Alpha virt. eigenvalues --    3.61463   3.62276   3.62436   3.62947   3.63407
 Alpha virt. eigenvalues --    3.63484   3.65114   3.65507   3.65745   3.66755
 Alpha virt. eigenvalues --    3.67219   3.67404   3.68729   3.68754   4.00078
 Alpha virt. eigenvalues --    4.00133   4.01273   4.01284   4.01635   4.01883
 Alpha virt. eigenvalues --    4.02523   4.02868   4.15786   4.16354   4.16971
 Alpha virt. eigenvalues --    4.17191   4.17658   4.19318   4.20985   4.21990
 Alpha virt. eigenvalues --    4.22154   4.22491   4.23251   4.23545   4.25166
 Alpha virt. eigenvalues --    4.26962   4.38102   4.39606   4.61900   4.63366
 Alpha virt. eigenvalues --    4.78753   4.79341   4.79897   4.80148   4.80447
 Alpha virt. eigenvalues --    4.81372   4.82139   4.82570   4.83548   4.84046
 Alpha virt. eigenvalues --   23.38829  23.40225  23.54346  23.55442  23.69012
 Alpha virt. eigenvalues --   23.69866  23.77051  23.78175  23.80274  23.81063
 Alpha virt. eigenvalues --   23.81298  23.82311  23.85802  23.86814  23.88765
 Alpha virt. eigenvalues --   23.88926  23.89767  23.89823  23.91887  23.92972
 Alpha virt. eigenvalues --   23.97128  23.97947  23.98257  23.98988  24.08621
 Alpha virt. eigenvalues --   24.09501  24.09685  24.10100  24.10549  24.11145
 Alpha virt. eigenvalues --   24.11815  24.13008  24.13354  24.13940  24.14563
 Alpha virt. eigenvalues --   24.15253  24.15368  24.15403  24.16327  24.16361
 Alpha virt. eigenvalues --   24.20045  24.20090  24.21147  24.21192
          Condensed to atoms (all electrons):
 Mulliken charges:
               1
     1  C   -0.041343
     2  C   -0.061969
     3  C   -0.073774
     4  C   -0.051588
     5  C   -0.087900
     6  C   -0.090654
     7  C   -0.045441
     8  C   -0.032635
     9  C   -0.007887
    10  C   -0.059642
    11  H    0.084715
    12  H    0.076313
    13  H    0.077193
    14  H    0.084144
    15  H    0.096478
    16  H    0.096907
    17  C   -0.048929
    18  C   -0.032635
    19  C   -0.011824
    20  C   -0.059642
    21  H    0.075016
    22  H    0.075848
    23  C   -0.045441
    24  C   -0.041343
    25  C   -0.007887
    26  C   -0.061969
    27  H    0.076313
    28  H    0.077193
    29  C   -0.073774
    30  C   -0.087900
    31  C   -0.051588
    32  C   -0.090654
    33  H    0.084715
    34  H    0.096907
    35  H    0.096478
    36  H    0.084144
    37  C   -0.040093
    38  C   -0.091257
    39  C   -0.060149
    40  C   -0.054335
    41  C   -0.088846
    42  C   -0.107009
    43  C   -0.024996
    44  C   -0.030871
    45  C   -0.015048
    46  C   -0.092250
    47  H    0.079850
    48  H    0.071952
    49  H    0.100258
    50  H    0.102133
    51  H    0.089889
    52  H    0.092406
    53  C   -0.029119
    54  C   -0.030871
    55  C   -0.019311
    56  C   -0.092250
    57  H    0.070546
    58  H    0.098669
    59  C   -0.024996
    60  C   -0.040093
    61  C   -0.015048
    62  C   -0.091257
    63  H    0.071952
    64  H    0.100258
    65  C   -0.060149
    66  C   -0.088846
    67  C   -0.054335
    68  C   -0.107009
    69  H    0.079850
    70  H    0.092406
    71  H    0.089889
    72  H    0.102133
 Sum of Mulliken charges =   0.00000
 Mulliken charges with hydrogens summed into heavy atoms:
               1
     1  C   -0.041343
     2  C   -0.061969
     3  C    0.010942
     4  C    0.032556
     5  C    0.009007
     6  C    0.005823
     7  C    0.030871
     8  C   -0.032635
     9  C    0.069306
    10  C   -0.059642
    17  C    0.026087
    18  C   -0.032635
    19  C    0.064024
    20  C   -0.059642
    23  C    0.030871
    24  C   -0.041343
    25  C    0.069306
    26  C   -0.061969
    29  C    0.010942
    30  C    0.009007
    31  C    0.032556
    32  C    0.005823
    37  C   -0.040093
    38  C   -0.091257
    39  C    0.019702
    40  C    0.047798
    41  C    0.003560
    42  C   -0.017119
    43  C    0.046956
    44  C   -0.030871
    45  C    0.085210
    46  C   -0.092250
    53  C    0.041427
    54  C   -0.030871
    55  C    0.079358
    56  C   -0.092250
    59  C    0.046956
    60  C   -0.040093
    61  C    0.085210
    62  C   -0.091257
    65  C    0.019702
    66  C    0.003560
    67  C    0.047798
    68  C   -0.017119
         Mulliken charges condensed to fragments:
      1      0.015942
      2     -0.015942
 Electronic spatial extent (au):  <R**2>=          28112.3756
 Charge=              0.0000 electrons
 Dipole moment (field-independent basis, Debye):
    X=             -0.7296    Y=             -0.9006    Z=              0.0000  Tot=              1.1591
 Quadrupole moment (field-independent basis, Debye-Ang):
   XX=           -246.2754   YY=           -248.2846   ZZ=           -218.9576
   XY=              0.4525   XZ=              0.0000   YZ=              0.0000
 Traceless Quadrupole moment (field-independent basis, Debye-Ang):
   XX=             -8.4362   YY=            -10.4454   ZZ=             18.8816
   XY=              0.4525   XZ=              0.0000   YZ=              0.0000
 Octapole moment (field-independent basis, Debye-Ang**2):
  XXX=            -87.1297  YYY=            199.4327  ZZZ=              0.0000  XYY=             20.4409
  XXY=            -77.5439  XXZ=              0.0000  XZZ=            -13.1883  YZZ=            -22.0417
  YYZ=              0.0000  XYZ=              0.0000
 Hexadecapole moment (field-independent basis, Debye-Ang**3):
 XXXX=          -2925.4217 YYYY=         -13174.8238 ZZZZ=         -20981.8749 XXXY=          -2215.4950
 XXXZ=              0.0000 YYYX=          -2228.1946 YYYZ=              0.0000 ZZZX=              0.0000
 ZZZY=              0.0000 XXYY=          -2763.6967 XXZZ=          -4413.0485 YYZZ=          -5940.4188
 XXYZ=              0.0000 YYXZ=              0.0000 ZZXY=           -652.0203
 N-N= 4.486952562614D+03 E-N=-1.290426295892D+04  KE= 1.686674552756D+03
 Symmetry A'   KE= 9.134117029696D+02
 Symmetry A"   KE= 7.732628497862D+02
 No NMR shielding tensors so no spin-rotation constants.
 Leave Link  601 at Wed Sep 27 16:39:41 2023, MaxMem=  3221225472 cpu:              54.1 elap:               1.5
 (Enter /home/center/opt/aarch64/apps/gaussian16/c01/g16/l122.exe)
 CPIOFr:  IOpCl= 0 IRwI=-1 IRwCP=  731 ICalc= -1 LCPTot=     1419224 Len1MO=     3708034 IndFrg=     1419224
 CPIOFr:  IOpCl= 0 IRwI=-1 IRwCP=  731 ICalc=  0 LCPTot=     1419224 Len1MO=     3708034 IndFrg=     5127258
 Counterpoise: doing calculation for fragment   1 using the basis set of the full-system, NewBq=T
 Leave Link  122 at Wed Sep 27 16:39:43 2023, MaxMem=  3221225472 cpu:               8.8 elap:               0.3
 (Enter /home/center/opt/aarch64/apps/gaussian16/c01/g16/l301.exe)
 Basis read from rwf:  (5D, 7F)
 No pseudopotential information found on rwf file.
 There are   528 symmetry adapted cartesian basis functions of A'  symmetry.
 There are   476 symmetry adapted cartesian basis functions of A"  symmetry.
 There are   504 symmetry adapted basis functions of A'  symmetry.
 There are   456 symmetry adapted basis functions of A"  symmetry.
   960 basis functions,  1632 primitive gaussians,  1004 cartesian basis functions
    73 alpha electrons       73 beta electrons
       nuclear repulsion energy      1494.3575061645 Hartrees.
 IExCor=  402 DFT=T Ex+Corr=B3LYP ExCW=0 ScaHFX=  0.200000
 ScaDFX=  0.800000  0.720000  1.000000  0.810000 ScalE2=  1.000000  1.000000
 IRadAn=      5 IRanWt=     -1 IRanGd=            0 ICorTp=0 IEmpDi=131
 NAtoms=   72 NActive=   72 NUniq=   40 SFac= 3.24D+00 NAtFMM=   60 NAOKFM=T Big=F
 Integral buffers will be    131072 words long.
 Raffenetti 2 integral format.
 Two-electron integral symmetry is turned on.
 R6Disp:  Grimme-D3 Dispersion energy=       -0.0303938888 Hartrees.
 Nuclear repulsion after empirical dispersion term =     1494.3271122757 Hartrees.
 No density basis found on file    718.
 Leave Link  301 at Wed Sep 27 16:39:46 2023, MaxMem=  3221225472 cpu:               3.9 elap:               0.1
 (Enter /home/center/opt/aarch64/apps/gaussian16/c01/g16/l302.exe)
 NPDir=0 NMtPBC=     1 NCelOv=     1 NCel=       1 NClECP=     1 NCelD=      1
         NCelK=      1 NCelE2=     1 NClLst=     1 CellRange=     0.0.
 One-electron integrals computed using PRISM.
 One-electron integral symmetry used in STVInt
 NBasis=   960 RedAO= T EigKep=  3.94D-05  NBF=   504   456
 NBsUse=   960 1.00D-06 EigRej= -1.00D+00 NBFU=   504   456
 Precomputing XC quadrature grid using
 IXCGrd= 4 IRadAn=           5 IRanWt=          -1 IRanGd=           0 AccXCQ= 0.00D+00.
 Generated NRdTot=       0 NPtTot=           0 NUsed=           0 NTot=          32
 NSgBfM=   987   987   987   987   987 MxSgAt=    72 MxSgA2=    72.
 Leave Link  302 at Wed Sep 27 16:39:50 2023, MaxMem=  3221225472 cpu:              58.1 elap:               1.5
 (Enter /home/center/opt/aarch64/apps/gaussian16/c01/g16/l303.exe)
 DipDrv:  MaxL=1.
 Leave Link  303 at Wed Sep 27 16:39:52 2023, MaxMem=  3221225472 cpu:              14.8 elap:               0.4
 (Enter /home/center/opt/aarch64/apps/gaussian16/c01/g16/l401.exe)
 ExpMin= 1.03D-01 ExpMax= 4.56D+03 ExpMxC= 6.82D+02 IAcc=3 IRadAn=         5 AccDes= 0.00D+00
 Harris functional with IExCor=  402 and IRadAn=       5 diagonalized for initial guess.
 HarFok:  IExCor=  402 AccDes= 0.00D+00 IRadAn=         5 IDoV= 1 UseB2=F ITyADJ=14
 ICtDFT=  3500011 ScaDFX=  1.000000  1.000000  1.000000  1.000000
 FoFCou: FMM=F IPFlag=           0 FMFlag=      100000 FMFlg1=        2000
         NFxFlg=           0 DoJE=T BraDBF=F KetDBF=T FulRan=T
         wScrn=  0.000000 ICntrl=       500 IOpCl=  0 I1Cent=   200000004 NGrid=           0
         NMat0=    1 NMatS0=      1 NMatT0=    0 NMatD0=    1 NMtDS0=    0 NMtDT0=    0
 Petite list used in FoFCou.
 Harris En= -847.065177790294    
 JPrj=0 DoOrth=F DoCkMO=F.
 Initial guess orbital symmetries:
       Occupied  (A") (A') (A') (A") (A") (A') (A") (A') (A') (A")
                 (A") (A') (A') (A') (A") (A') (A") (A') (A") (A')
                 (A') (A") (A') (A") (A') (A") (A') (A') (A") (A')
                 (A") (A") (A') (A') (A") (A") (A') (A") (A') (A')
                 (A') (A") (A") (A") (A') (A') (A") (A') (A') (A")
                 (A') (A") (A") (A') (A') (A") (A') (A") (A') (A")
                 (A") (A') (A') (A") (A') (A") (A') (A") (A') (A')
                 (A") (A") (A')
       Virtual   (A') (A") (A") (A') (A') (A") (A') (A") (A') (A")
                 (A') (A') (A") (A') (A") (A') (A") (A') (A') (A")
                 (A") (A') (A') (A") (A") (A') (A') (A') (A') (A")
                 (A') (A") (A') (A") (A") (A') (A') (A") (A") (A')
                 (A') (A") (A") (A') (A") (A') (A') (A") (A") (A')
                 (A') (A") (A") (A') (A') (A") (A') (A') (A") (A')
                 (A') (A") (A') (A") (A") (A') (A') (A") (A") (A')
                 (A') (A") (A") (A") (A') (A') (A') (A') (A') (A")
                 (A') (A') (A") (A") (A') (A') (A") (A") (A") (A')
                 (A") (A") (A") (A') (A") (A') (A") (A') (A') (A')
                 (A') (A") (A') (A') (A") (A') (A') (A') (A") (A")
                 (A") (A') (A') (A') (A") (A") (A") (A") (A') (A")
                 (A") (A') (A') (A") (A') (A") (A') (A') (A') (A")
                 (A") (A') (A') (A') (A") (A') (A') (A') (A") (A')
                 (A") (A") (A') (A') (A") (A") (A') (A") (A") (A')
                 (A') (A") (A") (A") (A') (A") (A') (A') (A') (A")
                 (A') (A') (A") (A') (A") (A") (A') (A") (A') (A")
                 (A') (A") (A') (A") (A") (A') (A') (A") (A') (A')
                 (A') (A") (A") (A') (A") (A") (A') (A") (A') (A")
                 (A') (A') (A") (A') (A') (A') (A") (A") (A') (A')
                 (A") (A") (A") (A") (A') (A") (A') (A") (A') (A')
                 (A') (A') (A") (A") (A') (A") (A") (A') (A") (A")
                 (A') (A') (A') (A') (A") (A') (A") (A') (A') (A")
                 (A") (A') (A') (A") (A') (A") (A') (A") (A") (A")
                 (A') (A") (A') (A') (A") (A') (A') (A") (A") (A")
                 (A") (A') (A") (A') (A') (A') (A') (A') (A") (A")
                 (A') (A") (A") (A') (A') (A') (A") (A") (A') (A')
                 (A") (A") (A') (A") (A") (A') (A") (A') (A') (A")
                 (A") (A') (A') (A") (A') (A") (A') (A") (A') (A")
                 (A') (A') (A") (A') (A") (A') (A') (A') (A') (A")
                 (A") (A') (A") (A") (A') (A') (A") (A") (A") (A")
                 (A') (A") (A') (A') (A") (A') (A') (A') (A") (A')
                 (A") (A') (A') (A") (A") (A') (A") (A') (A") (A')
                 (A") (A') (A') (A') (A') (A") (A") (A') (A') (A")
                 (A') (A") (A") (A") (A') (A") (A") (A') (A') (A')
                 (A') (A") (A") (A') (A") (A') (A") (A') (A') (A')
                 (A') (A") (A') (A") (A") (A") (A') (A") (A") (A')
                 (A") (A') (A') (A") (A') (A") (A") (A') (A") (A")
                 (A') (A') (A') (A") (A") (A') (A') (A') (A") (A')
                 (A") (A') (A") (A") (A') (A') (A") (A') (A") (A")
                 (A') (A') (A") (A") (A') (A") (A") (A') (A') (A")
                 (A') (A") (A') (A') (A") (A') (A") (A') (A") (A")
                 (A') (A') (A") (A') (A") (A") (A') (A") (A') (A")
                 (A') (A") (A') (A') (A') (A") (A") (A') (A") (A')
                 (A") (A') (A') (A') (A") (A') (A") (A") (A") (A")
                 (A') (A') (A') (A') (A') (A") (A') (A") (A") (A")
                 (A') (A") (A') (A") (A') (A") (A') (A") (A') (A')
                 (A") (A') (A") (A") (A') (A") (A") (A') (A') (A")
                 (A') (A") (A") (A') (A") (A') (A') (A") (A') (A")
                 (A") (A') (A') (A") (A') (A") (A') (A') (A") (A")
                 (A') (A") (A') (A") (A') (A") (A') (A") (A') (A")
                 (A') (A') (A") (A") (A') (A") (A") (A") (A') (A')
                 (A') (A") (A') (A") (A') (A") (A') (A') (A") (A')
                 (A') (A") (A") (A') (A') (A') (A") (A') (A') (A")
                 (A") (A") (A') (A') (A') (A") (A") (A') (A") (A')
                 (A") (A") (A') (A") (A') (A') (A') (A") (A') (A")
                 (A') (A") (A') (A") (A") (A') (A") (A') (A") (A")
                 (A') (A') (A") (A') (A') (A') (A') (A") (A") (A")
                 (A') (A') (A") (A") (A') (A') (A") (A") (A") (A")
                 (A') (A') (A') (A') (A') (A') (A") (A') (A") (A")
                 (A") (A') (A") (A") (A') (A') (A") (A') (A") (A')
                 (A') (A") (A') (A") (A') (A") (A') (A') (A") (A")
                 (A') (A') (A") (A") (A') (A") (A") (A') (A') (A")
                 (A") (A') (A") (A") (A") (A') (A') (A') (A') (A")
                 (A') (A") (A') (A') (A") (A") (A') (A") (A') (A")
                 (A') (A") (A') (A") (A') (A') (A") (A") (A") (A')
                 (A") (A") (A') (A') (A") (A') (A") (A") (A') (A')
                 (A') (A") (A") (A') (A') (A") (A') (A") (A') (A')
                 (A") (A') (A") (A') (A") (A') (A") (A') (A') (A")
                 (A') (A") (A') (A') (A") (A") (A') (A") (A') (A')
[...]
       Virtual   (A') (A") (A") (A') (A') (A") (A') (A') (A') (A")
                 (A") (A') (A") (A') (A") (A') (A") (A") (A') (A")
                 (A') (A') (A") (A') (A") (A') (A') (A') (A') (A")
                 (A") (A") (A") (A') (A') (A") (A') (A") (A') (A")
                 (A') (A') (A') (A") (A') (A") (A") (A') (A') (A")
                 (A") (A') (A') (A") (A') (A") (A") (A") (A') (A")
                 (A') (A') (A') (A') (A') (A") (A') (A') (A") (A")
                 (A") (A') (A') (A') (A") (A') (A") (A") (A") (A')
                 (A') (A") (A') (A") (A") (A') (A") (A') (A') (A')
                 (A') (A') (A") (A") (A") (A") (A') (A") (A') (A")
                 (A') (A') (A') (A") (A") (A') (A') (A") (A') (A")
                 (A') (A") (A") (A") (A') (A') (A") (A') (A') (A")
                 (A') (A") (A") (A') (A') (A") (A') (A") (A') (A")
                 (A") (A') (A') (A') (A') (A") (A") (A") (A') (A")
                 (A') (A") (A') (A") (A') (A') (A") (A") (A') (A")
                 (A') (A") (A') (A") (A') (A') (A") (A') (A") (A")
                 (A') (A") (A') (A') (A") (A") (A') (A") (A') (A")
                 (A') (A') (A") (A') (A') (A") (A") (A') (A') (A')
                 (A") (A') (A") (A") (A") (A") (A') (A") (A') (A')
                 (A") (A') (A") (A') (A') (A') (A") (A') (A") (A')
                 (A") (A") (A') (A') (A") (A") (A') (A') (A") (A')
                 (A') (A') (A') (A") (A") (A") (A") (A') (A') (A")
                 (A') (A") (A") (A') (A") (A') (A") (A') (A") (A')
                 (A") (A') (A') (A") (A') (A") (A") (A') (A') (A")
                 (A") (A') (A') (A") (A") (A') (A") (A") (A") (A')
                 (A') (A") (A') (A') (A") (A') (A') (A") (A') (A")
                 (A") (A') (A") (A') (A') (A") (A") (A") (A') (A')
                 (A") (A') (A') (A") (A") (A") (A') (A") (A') (A')
                 (A") (A') (A") (A') (A") (A') (A') (A') (A") (A')
                 (A") (A") (A') (A') (A") (A") (A') (A") (A') (A")
                 (A') (A') (A") (A") (A') (A') (A") (A') (A') (A')
                 (A") (A") (A') (A") (A') (A") (A') (A") (A') (A')
                 (A') (A") (A") (A") (A') (A") (A') (A') (A') (A")
                 (A") (A') (A") (A') (A') (A") (A') (A") (A") (A')
                 (A') (A") (A') (A") (A") (A') (A') (A") (A') (A")
                 (A') (A") (A') (A") (A') (A") (A") (A') (A') (A")
                 (A') (A") (A') (A') (A") (A") (A') (A") (A') (A')
                 (A") (A') (A") (A') (A') (A") (A') (A") (A') (A")
                 (A") (A') (A") (A') (A") (A') (A") (A') (A') (A")
                 (A") (A') (A") (A') (A') (A") (A") (A') (A') (A")
                 (A') (A") (A') (A") (A') (A') (A")
 The electronic state is 1-A'.
 Alpha  occ. eigenvalues --  -10.18931 -10.18930 -10.18896 -10.18895 -10.18848
 Alpha  occ. eigenvalues --  -10.18848 -10.18813 -10.18813 -10.17956 -10.17955
 Alpha  occ. eigenvalues --  -10.17920 -10.17920 -10.17919 -10.17919 -10.17875
 Alpha  occ. eigenvalues --  -10.17875 -10.17863 -10.17863 -10.17808 -10.17808
 Alpha  occ. eigenvalues --  -10.17781 -10.17781  -0.89340  -0.87865  -0.85549
 Alpha  occ. eigenvalues --   -0.82415  -0.79820  -0.78521  -0.78314  -0.75991
 Alpha  occ. eigenvalues --   -0.74255  -0.72901  -0.69196  -0.67344  -0.62728
 Alpha  occ. eigenvalues --   -0.62370  -0.61108  -0.59964  -0.59301  -0.57689
 Alpha  occ. eigenvalues --   -0.52709  -0.52573  -0.52293  -0.49654  -0.48513
 Alpha  occ. eigenvalues --   -0.47160  -0.46110  -0.45590  -0.45476  -0.43928
 Alpha  occ. eigenvalues --   -0.43182  -0.42578  -0.41808  -0.41572  -0.41386
 Alpha  occ. eigenvalues --   -0.40692  -0.40405  -0.39579  -0.38193  -0.36732
 Alpha  occ. eigenvalues --   -0.36341  -0.35550  -0.34094  -0.33809  -0.33058
 Alpha  occ. eigenvalues --   -0.32930  -0.31612  -0.29665  -0.28406  -0.26623
 Alpha  occ. eigenvalues --   -0.24364  -0.22582  -0.17855
 Alpha virt. eigenvalues --   -0.09755  -0.04464  -0.02747  -0.00147   0.02073
 Alpha virt. eigenvalues --    0.02370   0.03189   0.04746   0.04859   0.04871
 Alpha virt. eigenvalues --    0.06161   0.06575   0.07968   0.08162   0.08303
 Alpha virt. eigenvalues --    0.09607   0.10049   0.11524   0.11533   0.13796
 Alpha virt. eigenvalues --    0.14111   0.14670   0.18092   0.18194   0.18832
 Alpha virt. eigenvalues --    0.19391   0.22815   0.23002   0.24379   0.24942
 Alpha virt. eigenvalues --    0.25581   0.27528   0.27575   0.28012   0.28228
 Alpha virt. eigenvalues --    0.28947   0.29389   0.30158   0.30759   0.31175
 Alpha virt. eigenvalues --    0.32897   0.34528   0.36420   0.36484   0.37134
 Alpha virt. eigenvalues --    0.37503   0.37629   0.37651   0.38116   0.38643
 Alpha virt. eigenvalues --    0.39094   0.39439   0.39739   0.40236   0.40435
 Alpha virt. eigenvalues --    0.41918   0.41926   0.41940   0.42289   0.42318
 Alpha virt. eigenvalues --    0.42643   0.43748   0.44233   0.44835   0.45295
 Alpha virt. eigenvalues --    0.45683   0.45924   0.45953   0.46379   0.47165
 Alpha virt. eigenvalues --    0.47805   0.47809   0.47978   0.48073   0.48231
 Alpha virt. eigenvalues --    0.48568   0.49414   0.49572   0.51377   0.51846
 Alpha virt. eigenvalues --    0.52370   0.53118   0.53671   0.55998   0.57923
 Alpha virt. eigenvalues --    0.57955   0.59048   0.59201   0.60433   0.60585
 Alpha virt. eigenvalues --    0.60693   0.61101   0.61690   0.62105   0.62173
 Alpha virt. eigenvalues --    0.63432   0.63481   0.64458   0.64535   0.65533
 Alpha virt. eigenvalues --    0.66693   0.66910   0.67680   0.67724   0.70658
 Alpha virt. eigenvalues --    0.71305   0.71405   0.71494   0.72803   0.73989
 Alpha virt. eigenvalues --    0.75405   0.75894   0.76289   0.77801   0.77809
 Alpha virt. eigenvalues --    0.78943   0.79160   0.79723   0.81162   0.81509
 Alpha virt. eigenvalues --    0.82881   0.83001   0.84383   0.84585   0.84713
 Alpha virt. eigenvalues --    0.88087   0.89711   0.89765   0.91536   0.92083
 Alpha virt. eigenvalues --    0.92578   0.93749   0.95806   0.96107   0.96442
 Alpha virt. eigenvalues --    0.96590   0.96905   0.98547   1.00356   1.01118
 Alpha virt. eigenvalues --    1.02686   1.03027   1.03354   1.04405   1.05244
 Alpha virt. eigenvalues --    1.05439   1.05525   1.05950   1.07395   1.07547
 Alpha virt. eigenvalues --    1.07686   1.08438   1.10005   1.10036   1.12070
 Alpha virt. eigenvalues --    1.13223   1.13544   1.13650   1.14526   1.15341
 Alpha virt. eigenvalues --    1.17432   1.18332   1.19657   1.20432   1.23014
 Alpha virt. eigenvalues --    1.23618   1.27884   1.28234   1.30579   1.32076
 Alpha virt. eigenvalues --    1.32743   1.34942   1.37641   1.39236   1.39896
 Alpha virt. eigenvalues --    1.39942   1.40725   1.42751   1.43476   1.43554
 Alpha virt. eigenvalues --    1.45057   1.46086   1.47119   1.47538   1.48841
 Alpha virt. eigenvalues --    1.49280   1.49417   1.50258   1.50674   1.52268
 Alpha virt. eigenvalues --    1.52650   1.53402   1.54331   1.54372   1.54781
 Alpha virt. eigenvalues --    1.54807   1.57107   1.57715   1.58569   1.59882
 Alpha virt. eigenvalues --    1.60106   1.62692   1.63242   1.64856   1.66641
 Alpha virt. eigenvalues --    1.69292   1.69605   1.69709   1.70649   1.71804
 Alpha virt. eigenvalues --    1.72459   1.72619   1.73075   1.73096   1.73680
 Alpha virt. eigenvalues --    1.77494   1.78519   1.79157   1.79419   1.80511
 Alpha virt. eigenvalues --    1.81616   1.81887   1.82058   1.83581   1.84039
 Alpha virt. eigenvalues --    1.85487   1.87392   1.87456   1.87577   1.87728
 Alpha virt. eigenvalues --    1.88131   1.88613   1.90743   1.91387   1.92190
 Alpha virt. eigenvalues --    1.92193   1.92572   1.92670   1.93517   1.93938
 Alpha virt. eigenvalues --    1.94544   1.95483   1.97262   1.99429   2.00088
 Alpha virt. eigenvalues --    2.00602   2.01362   2.03019   2.05757   2.08293
 Alpha virt. eigenvalues --    2.09111   2.09256   2.09792   2.12192   2.14098
 Alpha virt. eigenvalues --    2.15528   2.15584   2.17200   2.19751   2.20833
 Alpha virt. eigenvalues --    2.21576   2.22525   2.23381   2.24503   2.26441
 Alpha virt. eigenvalues --    2.26972   2.27242   2.27719   2.28046   2.29391
 Alpha virt. eigenvalues --    2.33301   2.35725   2.39155   2.39384   2.40817
 Alpha virt. eigenvalues --    2.42649   2.43076   2.45776   2.45994   2.46870
 Alpha virt. eigenvalues --    2.51623   2.51954   2.53354   2.53485   2.55138
 Alpha virt. eigenvalues --    2.56159   2.58701   2.58838   2.59764   2.59776
 Alpha virt. eigenvalues --    2.60682   2.61147   2.61719   2.62222   2.63349
 Alpha virt. eigenvalues --    2.63999   2.64478   2.66054   2.66794   2.67121
 Alpha virt. eigenvalues --    2.67374   2.68356   2.68872   2.68876   2.69372
 Alpha virt. eigenvalues --    2.69557   2.69907   2.70083   2.70281   2.73482
 Alpha virt. eigenvalues --    2.74771   2.74836   2.76066   2.77101   2.77577
 Alpha virt. eigenvalues --    2.78232   2.78455   2.78850   2.80822   2.82359
 Alpha virt. eigenvalues --    2.85535   2.85993   2.86737   2.87294   2.90966
 Alpha virt. eigenvalues --    2.91783   2.92195   2.93676   2.95232   2.95887
 Alpha virt. eigenvalues --    2.99270   2.99858   3.03165   3.05604   3.06852
 Alpha virt. eigenvalues --    3.07371   3.15988   3.16029   3.16647   3.19843
 Alpha virt. eigenvalues --    3.20017   3.23601   3.29134   3.29680   3.31610
 Alpha virt. eigenvalues --    3.35095   3.35458   3.35677   3.35858   3.38023
 Alpha virt. eigenvalues --    3.39887   3.41413   3.44960   3.45362   3.47993
 Alpha virt. eigenvalues --    3.48278   3.50401   3.53073   3.57439   3.58649
 Alpha virt. eigenvalues --    3.61466   3.62620   3.63208   3.63698   3.65910
 Alpha virt. eigenvalues --    3.67534   3.67678   4.00384   4.00442   4.01859
 Alpha virt. eigenvalues --    4.02182   4.16133   4.16678   4.17360   4.21240
 Alpha virt. eigenvalues --    4.22396   4.22517   4.25488   4.38492   4.62290
 Alpha virt. eigenvalues --    4.79179   4.79740   4.80562   4.82562   4.83014
 Alpha virt. eigenvalues --   23.39176  23.54541  23.69085  23.77378  23.80419
 Alpha virt. eigenvalues --   23.81537  23.86099  23.89067  23.89154  23.92210
 Alpha virt. eigenvalues --   23.97563  23.98365  24.09049  24.09932  24.10529
 Alpha virt. eigenvalues --   24.12220  24.13779  24.14375  24.15775  24.15810
 Alpha virt. eigenvalues --   24.20452  24.20497
          Condensed to atoms (all electrons):
 Mulliken charges:
               1
     1  C    0.000000
     2  C    0.000000
     3  C    0.000000
     4  C    0.000000
     5  C    0.000000
     6  C    0.000000
     7  C    0.000000
     8  C    0.000000
     9  C    0.000000
    10  C    0.000000
    11  H    0.000000
    12  H    0.000000
    13  H    0.000000
    14  H    0.000000
    15  H    0.000000
    16  H    0.000000
    17  C    0.000000
    18  C    0.000000
    19  C    0.000000
    20  C    0.000000
    21  H    0.000000
    22  H    0.000000
    23  C    0.000000
    24  C    0.000000
    25  C    0.000000
    26  C    0.000000
    27  H    0.000000
    28  H    0.000000
    29  C    0.000000
    30  C    0.000000
    31  C    0.000000
    32  C    0.000000
    33  H    0.000000
    34  H    0.000000
    35  H    0.000000
    36  H    0.000000
    37  C   -0.059168
    38  C   -0.059168
    39  C   -0.055977
    40  C   -0.055977
    41  C   -0.092198
    42  C   -0.092198
    43  C   -0.016525
    44  C   -0.054498
    45  C   -0.016525
    46  C   -0.054498
    47  H    0.082122
    48  H    0.074853
    49  H    0.074853
    50  H    0.082122
    51  H    0.094847
    52  H    0.094847
    53  C   -0.020341
    54  C   -0.054498
    55  C   -0.020341
    56  C   -0.054498
    57  H    0.073428
    58  H    0.073428
    59  C   -0.016525
    60  C   -0.059168
    61  C   -0.016525
    62  C   -0.059168
    63  H    0.074853
    64  H    0.074853
    65  C   -0.055977
    66  C   -0.092198
    67  C   -0.055977
    68  C   -0.092198
    69  H    0.082122
    70  H    0.094847
    71  H    0.094847
    72  H    0.082122
 Sum of Mulliken charges =   0.00000
 Mulliken charges with hydrogens summed into heavy atoms:
               1
     1  C    0.000000
     2  C    0.000000
     3  C    0.000000
     4  C    0.000000
     5  C    0.000000
     6  C    0.000000
     7  C    0.000000
     8  C    0.000000
     9  C    0.000000
    10  C    0.000000
    17  C    0.000000
    18  C    0.000000
    19  C    0.000000
    20  C    0.000000
    23  C    0.000000
    24  C    0.000000
    25  C    0.000000
    26  C    0.000000
    29  C    0.000000
    30  C    0.000000
    31  C    0.000000
    32  C    0.000000
    37  C   -0.059168
    38  C   -0.059168
    39  C    0.026144
    40  C    0.026144
    41  C    0.002649
    42  C    0.002649
    43  C    0.058328
    44  C   -0.054498
    45  C    0.058328
    46  C   -0.054498
    53  C    0.053087
    54  C   -0.054498
    55  C    0.053087
    56  C   -0.054498
    59  C    0.058328
    60  C   -0.059168
    61  C    0.058328
    62  C   -0.059168
    65  C    0.026144
    66  C    0.002649
    67  C    0.026144
    68  C    0.002649
         Mulliken charges condensed to fragments:
      1      0.000000
      2      0.000000
 Electronic spatial extent (au):  <R**2>=          12556.7820
 Charge=              0.0000 electrons
 Dipole moment (field-independent basis, Debye):
    X=              0.0000    Y=              0.0000    Z=              0.0000  Tot=              0.0000
 Quadrupole moment (field-independent basis, Debye-Ang):
   XX=           -136.3921   YY=           -110.7480   ZZ=           -109.0115
   XY=              0.0000   XZ=              0.0000   YZ=              0.0000
 Traceless Quadrupole moment (field-independent basis, Debye-Ang):
   XX=            -17.6749   YY=              7.9692   ZZ=              9.7057
   XY=              0.0000   XZ=              0.0000   YZ=              0.0000
 Octapole moment (field-independent basis, Debye-Ang**2):
  XXX=            723.3281  YYY=            587.3301  ZZZ=              0.0000  XYY=            195.7767
  XXY=            241.1094  XXZ=              0.0000  XZZ=            192.7069  YZZ=            192.7069
  YYZ=              0.0000  XYZ=              0.0000
 Hexadecapole moment (field-independent basis, Debye-Ang**3):
 XXXX=          -2711.7550 YYYY=          -3193.2425 ZZZZ=         -10461.4324 XXXY=          -1278.6755
 XXXZ=              0.0000 YYYX=          -1038.2628 YYYZ=              0.0000 ZZZX=              0.0000
 ZZZY=              0.0000 XXYY=          -1028.7281 XXZZ=          -2548.5928 YYZZ=          -2309.8752
 XXYZ=              0.0000 YYXZ=              0.0000 ZZXY=           -340.6608
 N-N= 1.494327112193D+03 E-N=-4.953709175941D+03  KE= 8.433374905104D+02
 Symmetry A'   KE= 4.567052305456D+02
 Symmetry A"   KE= 3.866322599648D+02
 No NMR shielding tensors so no spin-rotation constants.
 Leave Link  601 at Wed Sep 27 16:57:00 2023, MaxMem=  3221225472 cpu:              18.0 elap:               0.5
 (Enter /home/center/opt/aarch64/apps/gaussian16/c01/g16/l122.exe)
 CPIOFr:  IOpCl= 0 IRwI=-1 IRwCP=  731 ICalc=  4 LCPTot=     1419224 Len1MO=     3708034 IndFrg=    19959394
 Restoring MOs from calculation   1 to rwf.
 CPIOFr:  IOpCl= 0 IRwI=-2 IRwCP=  731 ICalc=  0 LCPTot=     1419224 Len1MO=     3708034 IndFrg=     5127258
 Counterpoise corrected energy =   -1694.055946605946
                   BSSE energy =       0.002904930035
              sum of fragments =   -1694.039683044266
           complexation energy =     -12.03 kcal/mole (raw)
           complexation energy =     -10.21 kcal/mole (corrected)
 Leave Link  122 at Wed Sep 27 16:57:03 2023, MaxMem=  3221225472 cpu:               8.3 elap:               0.4
 (Enter /home/center/opt/aarch64/apps/gaussian16/c01/g16/l9999.exe)

 Test job not archived.
 1\1\GINC-FX0448\SP\RB3LYP\6-311G(d,p)\C44H28\Z40145W\27-Sep-2023\0\\#P
  TEST b3lyp/6-311G** EmpiricalDispersion=GD3 counterpoise=2\\pentacene
 _A1=0_A2=0_A3=45_p2\\0,1\C,0,-0.5039478476,0.5239478476,-3.6612755801\
 C,0,0.5239480325,-0.5039480325,-3.6612755629\C,0,-0.9861248463,1.00612
 48463,-4.9235927708\C,0,1.0061250889,-0.9861250889,-4.9235926697\C,0,-
 0.4963213507,0.5163213507,-6.096356521\C,0,0.5163216812,-0.4963216812,
 -6.0963564796\C,0,-0.9844684311,1.0044684311,-2.4533174875\C,0,-0.5044
 88426,0.524488426,-1.2140288145\C,0,1.0044685359,-0.9844685359,-2.4533
 173917\C,0,0.5244885437,-0.5044885437,-1.2140288362\H,0,-1.7533559667,
 1.7733559667,-4.9232600459\H,0,-1.7521866813,1.7721866813,-2.453928581
 5\H,0,1.7721859268,-1.7521859268,-2.4539284818\H,0,1.7733558421,-1.753
 3558421,-4.9232597785\H,0,0.8905568758,-0.8705568758,-7.0425276922\H,0
 ,-0.8705565046,0.8905565046,-7.042527775\C,0,-0.9848184961,1.004818496
 1,0.0099998782\C,0,-0.5044883957,0.5244883957,1.2340295553\C,0,1.00481
 85643,-0.9848185643,0.0099998696\C,0,0.5244885146,-0.5044885146,1.2340
 295261\H,0,-1.7524699697,1.7724699697,0.0099999205\H,0,1.772468921,-1.
 752468921,0.0099999641\C,0,-0.9844683048,1.0044683048,2.4733171385\C,0
 ,-0.5039477114,0.5239477114,3.681276331\C,0,1.0044684211,-0.9844684211
 ,2.4733170835\C,0,0.5239479079,-0.5039479079,3.6812763217\H,0,-1.75218
 65527,1.7721865527,2.4739285326\H,0,1.7721858092,-1.7521858092,2.47392
 83796\C,0,-0.9861245177,1.0061245177,4.9435920588\C,0,-0.4963209372,0.
 5163209372,6.116356633\C,0,1.0061247659,-0.9861247659,4.9435919377\C,0
 ,0.5163212637,-0.4963212637,6.1163566075\H,0,-1.7533556504,1.773355650
 4,4.9432601504\H,0,-0.8705567426,0.8905567426,7.0625274368\H,0,0.89055
 70967,-0.8705570967,7.0625272142\H,0,1.7733555414,-1.7533555414,4.9432
 599297\C,0,4.4960521524,0.5239478476,-3.6612755801\C,0,5.5239480325,-0
 .5039480325,-3.6612755629\C,0,4.0138751537,1.0061248463,-4.9235927708\
 C,0,6.0061250889,-0.9861250889,-4.9235926697\C,0,4.5036786493,0.516321
 3507,-6.096356521\C,0,5.5163216812,-0.4963216812,-6.0963564796\C,0,4.0
 155315689,1.0044684311,-2.4533174875\C,0,4.495511574,0.524488426,-1.21
 40288145\C,0,6.0044685359,-0.9844685359,-2.4533173917\C,0,5.5244885437
 ,-0.5044885437,-1.2140288362\H,0,3.2466440333,1.7733559667,-4.92326004
 59\H,0,3.2478133187,1.7721866813,-2.4539285815\H,0,6.7721859268,-1.752
 1859268,-2.4539284818\H,0,6.7733558421,-1.7533558421,-4.9232597785\H,0
 ,5.8905568758,-0.8705568758,-7.0425276922\H,0,4.1294434954,0.890556504
 6,-7.042527775\C,0,4.0151815039,1.0048184961,0.0099998782\C,0,4.495511
 6043,0.5244883957,1.2340295553\C,0,6.0048185643,-0.9848185643,0.009999
 8696\C,0,5.5244885146,-0.5044885146,1.2340295261\H,0,3.2475300303,1.77
 24699697,0.0099999205\H,0,6.772468921,-1.752468921,0.0099999641\C,0,4.
 0155316952,1.0044683048,2.4733171385\C,0,4.4960522886,0.5239477114,3.6
 81276331\C,0,6.0044684211,-0.9844684211,2.4733170835\C,0,5.5239479079,
 -0.5039479079,3.6812763217\H,0,3.2478134473,1.7721865527,2.4739285326\
 H,0,6.7721858092,-1.7521858092,2.4739283796\C,0,4.0138754823,1.0061245
 177,4.9435920588\C,0,4.5036790628,0.5163209372,6.116356633\C,0,6.00612
 47659,-0.9861247659,4.9435919377\C,0,5.5163212637,-0.4963212637,6.1163
 566075\H,0,3.2466443496,1.7733556504,4.9432601504\H,0,4.1294432574,0.8
 905567426,7.0625274368\H,0,5.8905570967,-0.8705570967,7.0625272142\H,0
 ,6.7733555414,-1.7533555414,4.9432599297\\Version=Fujitsu-Arm-G16RevC.
 01\State=1-A'\HF=-847.0198415\RMSD=3.181e-09\Dipole=-0.0000009,0.00000
 11,0.\Quadrupole=-8.9382346,-5.3835131,14.3217477,-17.4479777,0.,0.\PG
 =CS [SG(C4H4),X(C40H24)]\\@


 GARLIC THEN HAVE POWER TO SAVE FROM DEATH
 BEAR WITH IT THOUGH IT MAKETH UNSAVORY BREATH,
 AND SCORN NOT GARLIC LIKE SOME THAT THINK
 IT ONLY MAKETH MEN WINK AND DRINK AND STINK.
   --  SIR JOHN HARRINGTON,
       "THE ENGLISHMAN'S DOCTOR", 1609
 Job cpu time:       0 days  3 hours 35 minutes 26.6 seconds.
 Elapsed time:       0 days  0 hours  5 minutes 36.4 seconds.
 File lengths (MBytes):  RWF=    718 Int=      0 D2E=      0 Chk=    208 Scr=      1
 Normal termination of Gaussian 16 at Wed Sep 27 16:57:08 2023.
