 Entering Gaussian System, Link 0=g16
 Initial command:
 /home/center/opt/aarch64/apps/gaussian16/c01/g16/l1.exe "/data/tmp/Gtmp/1006988/Gau-49.inp" -scrdir="/data/tmp/Gtmp/1006988/"
 Entering Link 1 = /home/center/opt/aarch64/apps/gaussian16/c01/g16/l1.exe PID=        50.
  
 Copyright (c) 1988-2019, Gaussian, Inc.  All Rights Reserved.
  
 This is part of the Gaussian(R) 16 program.  It is based on
 the Gaussian(R) 09 system (copyright 2009, Gaussian, Inc.),
 the Gaussian(R) 03 system (copyright 2003, Gaussian, Inc.),
 the Gaussian(R) 98 system (copyright 1998, Gaussian, Inc.),
 the Gaussian(R) 94 system (copyright 1995, Gaussian, Inc.),
 the Gaussian 92(TM) system (copyright 1992, Gaussian, Inc.),
 the Gaussian 90(TM) system (copyright 1990, Gaussian, Inc.),
 the Gaussian 88(TM) system (copyright 1988, Gaussian, Inc.),
 the Gaussian 86(TM) system (copyright 1986, Carnegie Mellon
 University), and the Gaussian 82(TM) system (copyright 1983,
 Carnegie Mellon University). Gaussian is a federally registered
 trademark of Gaussian, Inc.
  
 This software contains proprietary and confidential information,
 including trade secrets, belonging to Gaussian, Inc.
  
 This software is provided under written license and may be
 used, copied, transmitted, or stored only in accord with that
 written license.
  
 The following legend is applicable only to US Government
 contracts under FAR:
  
                    RESTRICTED RIGHTS LEGEND
  
 Use, reproduction and disclosure by the US Government is
 subject to restrictions as set forth in subparagraphs (a)
 and (c) of the Commercial Computer Software - Restricted
 Rights clause in FAR 52.227-19.
  
 Gaussian, Inc.
 340 Quinnipiac St., Bldg. 40, Wallingford CT 06492
  
  
 ---------------------------------------------------------------
 Warning -- This program may not be used in any manner that
 competes with the business of Gaussian, Inc. or will provide
 assistance to any competitor of Gaussian, Inc.  The licensee
 of this program is prohibited from giving any competitor of
 Gaussian, Inc. access to this program.  By using this program,
 the user acknowledges that Gaussian, Inc. is engaged in the
 business of creating and licensing software in the field of
 computational chemistry and represents and warrants to the
 licensee that it is not a competitor of Gaussian, Inc. and that
 it will not use this program in any manner prohibited above.
 ---------------------------------------------------------------
  

 Cite this work as:
 Gaussian 16, Revision C.01,
 M. J. Frisch, G. W. Trucks, H. B. Schlegel, G. E. Scuseria, 
 M. A. Robb, J. R. Cheeseman, G. Scalmani, V. Barone, 
 G. A. Petersson, H. Nakatsuji, X. Li, M. Caricato, A. V. Marenich, 
 J. Bloino, B. G. Janesko, R. Gomperts, B. Mennucci, H. P. Hratchian, 
 J. V. Ortiz, A. F. Izmaylov, J. L. Sonnenberg, D. Williams-Young, 
 F. Ding, F. Lipparini, F. Egidi, J. Goings, B. Peng, A. Petrone, 
 T. Henderson, D. Ranasinghe, V. G. Zakrzewski, J. Gao, N. Rega, 
 G. Zheng, W. Liang, M. Hada, M. Ehara, K. Toyota, R. Fukuda, 
 J. Hasegawa, M. Ishida, T. Nakajima, Y. Honda, O. Kitao, H. Nakai, 
 T. Vreven, K. Throssell, J. A. Montgomery, Jr., J. E. Peralta, 
 F. Ogliaro, M. J. Bearpark, J. J. Heyd, E. N. Brothers, K. N. Kudin, 
 V. N. Staroverov, T. A. Keith, R. Kobayashi, J. Normand, 
 K. Raghavachari, A. P. Rendell, J. C. Burant, S. S. Iyengar, 
 J. Tomasi, M. Cossi, J. M. Millam, M. Klene, C. Adamo, R. Cammi, 
 J. W. Ochterski, R. L. Martin, K. Morokuma, O. Farkas, 
 J. B. Foresman, and D. J. Fox, Gaussian, Inc., Wallingford CT, 2019.
 
 ************************************************
 Gaussian 16:  Fujitsu-Arm-G16RevC.01  3-Jul-2019
                   27-Sep-2023 
 ************************************************
 %mem=24GB
 %nproc=42
 Will use up to   42 processors via shared memory.
 -------------------------------------------------------------
 #P TEST b3lyp/6-311G** EmpiricalDispersion=GD3 counterpoise=2
 -------------------------------------------------------------
 1/38=1,62=2,172=1/1;
 2/12=2,17=6,18=5,40=1/2;
 1/38=1,53=2,62=2,63=1/22;
 3/5=4,6=6,7=101,11=2,25=1,30=1,74=-5,124=31/1,2,3;
 4//1;
 5/5=2,38=5/2;
 6/7=2,8=2,9=2,10=2,28=1/1;
 1/53=2,62=2,63=1/22;
 3/5=7,6=11,7=101,11=2,25=1,30=1,74=-5,82=7,124=31/1,2,3;
 4//1;
 5/5=2,38=5/2;
 6/7=2,8=2,9=2,10=2,28=1/1;
 1/53=2,62=2,63=1/22(-4);
 99/5=1,9=1/99;
 Leave Link    1 at Wed Sep 27 16:57:34 2023, MaxMem=  3221225472 cpu:               6.0 elap:               0.2
 (Enter /home/center/opt/aarch64/apps/gaussian16/c01/g16/l101.exe)
 ----------------------------
 pentacene_A1=0_A2=0_A3=45_t1
 ----------------------------
 Symbolic Z-matrix:
 Charge =  0 Multiplicity = 1 in supermolecule
 Charge =  0 Multiplicity = 1 in fragment      1.
 Charge =  0 Multiplicity = 1 in fragment      2.
 C(Fragment=1)        -0.50395   0.52395  -3.66128 
 C(Fragment=1)         0.52395  -0.50395  -3.66128 
 C(Fragment=1)        -0.98612   1.00612  -4.92359 
 C(Fragment=1)         1.00613  -0.98613  -4.92359 
 C(Fragment=1)        -0.49632   0.51632  -6.09636 
 C(Fragment=1)         0.51632  -0.49632  -6.09636 
 C(Fragment=1)        -0.98447   1.00447  -2.45332 
 C(Fragment=1)        -0.50449   0.52449  -1.21403 
 C(Fragment=1)         1.00447  -0.98447  -2.45332 
 C(Fragment=1)         0.52449  -0.50449  -1.21403 
 H(Fragment=1)        -1.75336   1.77336  -4.92326 
 H(Fragment=1)        -1.75219   1.77219  -2.45393 
 H(Fragment=1)         1.77219  -1.75219  -2.45393 
 H(Fragment=1)         1.77336  -1.75336  -4.92326 
 H(Fragment=1)         0.89056  -0.87056  -7.04253 
 H(Fragment=1)        -0.87056   0.89056  -7.04253 
 C(Fragment=1)        -0.98482   1.00482   0.01 
 C(Fragment=1)        -0.50449   0.52449   1.23403 
 C(Fragment=1)         1.00482  -0.98482   0.01 
 C(Fragment=1)         0.52449  -0.50449   1.23403 
 H(Fragment=1)        -1.75247   1.77247   0.01 
 H(Fragment=1)         1.77247  -1.75247   0.01 
 C(Fragment=1)        -0.98447   1.00447   2.47332 
 C(Fragment=1)        -0.50395   0.52395   3.68128 
 C(Fragment=1)         1.00447  -0.98447   2.47332 
 C(Fragment=1)         0.52395  -0.50395   3.68128 
 H(Fragment=1)        -1.75219   1.77219   2.47393 
 H(Fragment=1)         1.77219  -1.75219   2.47393 
 C(Fragment=1)        -0.98612   1.00612   4.94359 
 C(Fragment=1)        -0.49632   0.51632   6.11636 
 C(Fragment=1)         1.00612  -0.98612   4.94359 
 C(Fragment=1)         0.51632  -0.49632   6.11636 
 H(Fragment=1)        -1.75336   1.77336   4.94326 
 H(Fragment=1)        -0.87056   0.89056   7.06253 
 H(Fragment=1)         0.89056  -0.87056   7.06253 
 H(Fragment=1)         1.77336  -1.75336   4.94326 
 C(Fragment=2)         5.02395   3.27395  -3.66128 
 C(Fragment=2)         3.99605   2.24605  -3.66128 
 C(Fragment=2)         5.50612   3.75612  -4.92359 
 C(Fragment=2)         3.51387   1.76387  -4.92359 
 C(Fragment=2)         5.01632   3.26632  -6.09636 
 C(Fragment=2)         4.00368   2.25368  -6.09636 
 C(Fragment=2)         5.50447   3.75447  -2.45332 
 C(Fragment=2)         5.02449   3.27449  -1.21403 
 C(Fragment=2)         3.51553   1.76553  -2.45332 
 C(Fragment=2)         3.99551   2.24551  -1.21403 
 H(Fragment=2)         6.27336   4.52336  -4.92326 
 H(Fragment=2)         6.27219   4.52219  -2.45393 
 H(Fragment=2)         2.74781   0.99781  -2.45393 
 H(Fragment=2)         2.74664   0.99664  -4.92326 
 H(Fragment=2)         3.62944   1.87944  -7.04253 
 H(Fragment=2)         5.39056   3.64056  -7.04253 
 C(Fragment=2)         5.50482   3.75482   0.01 
 C(Fragment=2)         5.02449   3.27449   1.23403 
 C(Fragment=2)         3.51518   1.76518   0.01 
 C(Fragment=2)         3.99551   2.24551   1.23403 
 H(Fragment=2)         6.27247   4.52247   0.01 
 H(Fragment=2)         2.74753   0.99753   0.01 
 C(Fragment=2)         5.50447   3.75447   2.47332 
 C(Fragment=2)         5.02395   3.27395   3.68128 
 C(Fragment=2)         3.51553   1.76553   2.47332 
 C(Fragment=2)         3.99605   2.24605   3.68128 
 H(Fragment=2)         6.27219   4.52219   2.47393 
 H(Fragment=2)         2.74781   0.99781   2.47393 
 C(Fragment=2)         5.50612   3.75612   4.94359 
 C(Fragment=2)         5.01632   3.26632   6.11636 
 C(Fragment=2)         3.51388   1.76388   4.94359 
 C(Fragment=2)         4.00368   2.25368   6.11636 
 H(Fragment=2)         6.27336   4.52336   4.94326 
 H(Fragment=2)         5.39056   3.64056   7.06253 
 H(Fragment=2)         3.62944   1.87944   7.06253 
 H(Fragment=2)         2.74664   0.99664   4.94326 
 
 ITRead=  0  0  0  0  0  0  0  0  0  0  0  0  0  0  0  0  0  0  0  0
 ITRead=  0  0  0  0  0  0  0  0  0  0  0  0  0  0  0  0  0  0  0  0
 ITRead=  0  0  0  0  0  0  0  0  0  0  0  0  0  0  0  0  0  0  0  0
 ITRead=  0  0  0  0  0  0  0  0  0  0  0  0
 MicOpt= -1 -1 -1 -1 -1 -1 -1 -1 -1 -1 -1 -1 -1 -1 -1 -1 -1 -1 -1 -1
 MicOpt= -1 -1 -1 -1 -1 -1 -1 -1 -1 -1 -1 -1 -1 -1 -1 -1 -1 -1 -1 -1
 MicOpt= -1 -1 -1 -1 -1 -1 -1 -1 -1 -1 -1 -1 -1 -1 -1 -1 -1 -1 -1 -1
 MicOpt= -1 -1 -1 -1 -1 -1 -1 -1 -1 -1 -1 -1
 NAtoms=     72 NQM=       72 NQMF=       0 NMMI=      0 NMMIF=      0
                NMic=       0 NMicF=      0.
                    Isotopes and Nuclear Properties:
 (Nuclear quadrupole moments (NQMom) in fm**2, nuclear magnetic moments (NMagM)
  in nuclear magnetons)

  Atom         1           2           3           4           5           6           7           8           9          10
 IAtWgt=          12          12          12          12          12          12          12          12          12          12
 AtmWgt=  12.0000000  12.0000000  12.0000000  12.0000000  12.0000000  12.0000000  12.0000000  12.0000000  12.0000000  12.0000000
 NucSpn=           0           0           0           0           0           0           0           0           0           0
 AtZEff=   0.0000000   0.0000000   0.0000000   0.0000000   0.0000000   0.0000000   0.0000000   0.0000000   0.0000000   0.0000000
 NQMom=    0.0000000   0.0000000   0.0000000   0.0000000   0.0000000   0.0000000   0.0000000   0.0000000   0.0000000   0.0000000
 NMagM=    0.0000000   0.0000000   0.0000000   0.0000000   0.0000000   0.0000000   0.0000000   0.0000000   0.0000000   0.0000000
 AtZNuc=   6.0000000   6.0000000   6.0000000   6.0000000   6.0000000   6.0000000   6.0000000   6.0000000   6.0000000   6.0000000

  Atom        11          12          13          14          15          16          17          18          19          20
 IAtWgt=           1           1           1           1           1           1          12          12          12          12
 AtmWgt=   1.0078250   1.0078250   1.0078250   1.0078250   1.0078250   1.0078250  12.0000000  12.0000000  12.0000000  12.0000000
 NucSpn=           1           1           1           1           1           1           0           0           0           0
 AtZEff=   0.0000000   0.0000000   0.0000000   0.0000000   0.0000000   0.0000000   0.0000000   0.0000000   0.0000000   0.0000000
 NQMom=    0.0000000   0.0000000   0.0000000   0.0000000   0.0000000   0.0000000   0.0000000   0.0000000   0.0000000   0.0000000
 NMagM=    2.7928460   2.7928460   2.7928460   2.7928460   2.7928460   2.7928460   0.0000000   0.0000000   0.0000000   0.0000000
 AtZNuc=   1.0000000   1.0000000   1.0000000   1.0000000   1.0000000   1.0000000   6.0000000   6.0000000   6.0000000   6.0000000

  Atom        21          22          23          24          25          26          27          28          29          30
 IAtWgt=           1           1          12          12          12          12           1           1          12          12
 AtmWgt=   1.0078250   1.0078250  12.0000000  12.0000000  12.0000000  12.0000000   1.0078250   1.0078250  12.0000000  12.0000000
 NucSpn=           1           1           0           0           0           0           1           1           0           0
 AtZEff=   0.0000000   0.0000000   0.0000000   0.0000000   0.0000000   0.0000000   0.0000000   0.0000000   0.0000000   0.0000000
 NQMom=    0.0000000   0.0000000   0.0000000   0.0000000   0.0000000   0.0000000   0.0000000   0.0000000   0.0000000   0.0000000
 NMagM=    2.7928460   2.7928460   0.0000000   0.0000000   0.0000000   0.0000000   2.7928460   2.7928460   0.0000000   0.0000000
 AtZNuc=   1.0000000   1.0000000   6.0000000   6.0000000   6.0000000   6.0000000   1.0000000   1.0000000   6.0000000   6.0000000

  Atom        31          32          33          34          35          36          37          38          39          40
 IAtWgt=          12          12           1           1           1           1          12          12          12          12
 AtmWgt=  12.0000000  12.0000000   1.0078250   1.0078250   1.0078250   1.0078250  12.0000000  12.0000000  12.0000000  12.0000000
 NucSpn=           0           0           1           1           1           1           0           0           0           0
 AtZEff=   0.0000000   0.0000000   0.0000000   0.0000000   0.0000000   0.0000000   0.0000000   0.0000000   0.0000000   0.0000000
 NQMom=    0.0000000   0.0000000   0.0000000   0.0000000   0.0000000   0.0000000   0.0000000   0.0000000   0.0000000   0.0000000
 NMagM=    0.0000000   0.0000000   2.7928460   2.7928460   2.7928460   2.7928460   0.0000000   0.0000000   0.0000000   0.0000000
 AtZNuc=   6.0000000   6.0000000   1.0000000   1.0000000   1.0000000   1.0000000   6.0000000   6.0000000   6.0000000   6.0000000

  Atom        41          42          43          44          45          46          47          48          49          50
 IAtWgt=          12          12          12          12          12          12           1           1           1           1
 AtmWgt=  12.0000000  12.0000000  12.0000000  12.0000000  12.0000000  12.0000000   1.0078250   1.0078250   1.0078250   1.0078250
 NucSpn=           0           0           0           0           0           0           1           1           1           1
 AtZEff=   0.0000000   0.0000000   0.0000000   0.0000000   0.0000000   0.0000000   0.0000000   0.0000000   0.0000000   0.0000000
 NQMom=    0.0000000   0.0000000   0.0000000   0.0000000   0.0000000   0.0000000   0.0000000   0.0000000   0.0000000   0.0000000
 NMagM=    0.0000000   0.0000000   0.0000000   0.0000000   0.0000000   0.0000000   2.7928460   2.7928460   2.7928460   2.7928460
 AtZNuc=   6.0000000   6.0000000   6.0000000   6.0000000   6.0000000   6.0000000   1.0000000   1.0000000   1.0000000   1.0000000

  Atom        51          52          53          54          55          56          57          58          59          60
 IAtWgt=           1           1          12          12          12          12           1           1          12          12
 AtmWgt=   1.0078250   1.0078250  12.0000000  12.0000000  12.0000000  12.0000000   1.0078250   1.0078250  12.0000000  12.0000000
 NucSpn=           1           1           0           0           0           0           1           1           0           0
 AtZEff=   0.0000000   0.0000000   0.0000000   0.0000000   0.0000000   0.0000000   0.0000000   0.0000000   0.0000000   0.0000000
 NQMom=    0.0000000   0.0000000   0.0000000   0.0000000   0.0000000   0.0000000   0.0000000   0.0000000   0.0000000   0.0000000
 NMagM=    2.7928460   2.7928460   0.0000000   0.0000000   0.0000000   0.0000000   2.7928460   2.7928460   0.0000000   0.0000000
 AtZNuc=   1.0000000   1.0000000   6.0000000   6.0000000   6.0000000   6.0000000   1.0000000   1.0000000   6.0000000   6.0000000

  Atom        61          62          63          64          65          66          67          68          69          70
 IAtWgt=          12          12           1           1          12          12          12          12           1           1
 AtmWgt=  12.0000000  12.0000000   1.0078250   1.0078250  12.0000000  12.0000000  12.0000000  12.0000000   1.0078250   1.0078250
 NucSpn=           0           0           1           1           0           0           0           0           1           1
 AtZEff=   0.0000000   0.0000000   0.0000000   0.0000000   0.0000000   0.0000000   0.0000000   0.0000000   0.0000000   0.0000000
 NQMom=    0.0000000   0.0000000   0.0000000   0.0000000   0.0000000   0.0000000   0.0000000   0.0000000   0.0000000   0.0000000
 NMagM=    0.0000000   0.0000000   2.7928460   2.7928460   0.0000000   0.0000000   0.0000000   0.0000000   2.7928460   2.7928460
 AtZNuc=   6.0000000   6.0000000   1.0000000   1.0000000   6.0000000   6.0000000   6.0000000   6.0000000   1.0000000   1.0000000

  Atom        71          72
 IAtWgt=           1           1
 AtmWgt=   1.0078250   1.0078250
 NucSpn=           1           1
 AtZEff=   0.0000000   0.0000000
 NQMom=    0.0000000   0.0000000
 NMagM=    2.7928460   2.7928460
 AtZNuc=   1.0000000   1.0000000
 Leave Link  101 at Wed Sep 27 16:57:36 2023, MaxMem=  3221225472 cpu:               2.5 elap:               0.1
 (Enter /home/center/opt/aarch64/apps/gaussian16/c01/g16/l202.exe)
 Stoichiometry    C44H28
 Framework group  CS[SG(C4H4),X(C40H24)]
 Deg. of freedom   109
 Full point group                 CS      NOp   2
 Largest Abelian subgroup         CS      NOp   2
 Largest concise Abelian subgroup CS      NOp   2
                         Standard orientation:                         
 ---------------------------------------------------------------------
 Center     Atomic      Atomic             Coordinates (Angstroms)
 Number     Number       Type             X           Y           Z
 ---------------------------------------------------------------------
      1          6           0        1.345550   -2.563262    3.671276
      2          6           0       -0.108114   -2.563262    3.671276
      3          6           0        2.027452   -2.563262    4.933593
      4          6           0       -0.790015   -2.563262    4.933593
      5          6           0        1.334765   -2.563262    6.106357
      6          6           0       -0.097329   -2.563262    6.106357
      7          6           0        2.025109   -2.563262    2.463318
      8          6           0        1.346315   -2.563262    1.224029
      9          6           0       -0.787672   -2.563262    2.463317
     10          6           0       -0.108878   -2.563262    1.224029
     11          1           0        3.112480   -2.563262    4.933260
     12          1           0        3.110827   -2.563262    2.463929
     13          1           0       -1.873389   -2.563262    2.463929
     14          1           0       -1.875043   -2.563262    4.933260
     15          1           0       -0.626577   -2.563262    7.052528
     16          1           0        1.864013   -2.563262    7.052528
     17          6           0        2.025604   -2.563262    0.000000
     18          6           0        1.346315   -2.563262   -1.224029
     19          6           0       -0.788167   -2.563262    0.000000
     20          6           0       -0.108878   -2.563262   -1.224029
     21          1           0        3.111227   -2.563262    0.000000
     22          1           0       -1.873789   -2.563262    0.000000
     23          6           0        2.025109   -2.563262   -2.463318
     24          6           0        1.345550   -2.563262   -3.671276
     25          6           0       -0.787672   -2.563262   -2.463317
     26          6           0       -0.108114   -2.563262   -3.671276
     27          1           0        3.110827   -2.563262   -2.463929
     28          1           0       -1.873389   -2.563262   -2.463929
     29          6           0        2.027452   -2.563262   -4.933593
     30          6           0        1.334765   -2.563262   -6.106357
     31          6           0       -0.790015   -2.563262   -4.933593
     32          6           0       -0.097329   -2.563262   -6.106357
     33          1           0        3.112480   -2.563262   -4.933260
     34          1           0        1.864013   -2.563262   -7.052528
     35          1           0       -0.626577   -2.563262   -7.052528
     36          1           0       -1.875043   -2.563262   -4.933260
     37          6           0       -0.618718    3.290094    3.671276
     38          6           0       -0.618718    1.836430    3.671276
     39          6           0       -0.618718    3.971995    4.933593
     40          6           0       -0.618718    1.154529    4.933593
     41          6           0       -0.618718    3.279309    6.106357
     42          6           0       -0.618718    1.847215    6.106357
     43          6           0       -0.618718    3.969653    2.463318
     44          6           0       -0.618718    3.290859    1.224029
     45          6           0       -0.618718    1.156871    2.463317
     46          6           0       -0.618718    1.835665    1.224029
     47          1           0       -0.618718    5.057024    4.933260
     48          1           0       -0.618718    5.055370    2.463929
     49          1           0       -0.618718    0.071155    2.463929
     50          1           0       -0.618718    0.069500    4.933260
     51          1           0       -0.618718    1.317967    7.052528
     52          1           0       -0.618718    3.808557    7.052528
     53          6           0       -0.618718    3.970148    0.000000
     54          6           0       -0.618718    3.290859   -1.224029
     55          6           0       -0.618718    1.156376    0.000000
     56          6           0       -0.618718    1.835665   -1.224029
     57          1           0       -0.618718    5.055771    0.000000
     58          1           0       -0.618718    0.070755    0.000000
     59          6           0       -0.618718    3.969653   -2.463318
     60          6           0       -0.618718    3.290094   -3.671276
     61          6           0       -0.618718    1.156871   -2.463317
     62          6           0       -0.618718    1.836430   -3.671276
     63          1           0       -0.618718    5.055370   -2.463929
     64          1           0       -0.618718    0.071155   -2.463929
     65          6           0       -0.618718    3.971995   -4.933593
     66          6           0       -0.618718    3.279309   -6.106357
     67          6           0       -0.618718    1.154529   -4.933593
     68          6           0       -0.618718    1.847215   -6.106357
     69          1           0       -0.618718    5.057024   -4.933260
     70          1           0       -0.618718    3.808557   -7.052528
     71          1           0       -0.618718    1.317967   -7.052528
     72          1           0       -0.618718    0.069500   -4.933260
 ---------------------------------------------------------------------
 Rotational constants (GHZ):           0.1091205           0.0563744           0.0393838
 Leave Link  202 at Wed Sep 27 16:57:38 2023, MaxMem=  3221225472 cpu:               0.6 elap:               0.0
 (Enter /home/center/opt/aarch64/apps/gaussian16/c01/g16/l122.exe)
 Counterpoise: doing full-system calculation.
 Leave Link  122 at Wed Sep 27 16:57:40 2023, MaxMem=  3221225472 cpu:               0.2 elap:               0.0
 (Enter /home/center/opt/aarch64/apps/gaussian16/c01/g16/l301.exe)
 Standard basis: 6-311G(d,p) (5D, 7F)
 Ernie: Thresh=  0.10000D-02 Tol=  0.10000D-05 Strict=F.
 There are   528 symmetry adapted cartesian basis functions of A'  symmetry.
 There are   476 symmetry adapted cartesian basis functions of A"  symmetry.
 There are   504 symmetry adapted basis functions of A'  symmetry.
 There are   456 symmetry adapted basis functions of A"  symmetry.
   960 basis functions,  1632 primitive gaussians,  1004 cartesian basis functions
   146 alpha electrons      146 beta electrons
       nuclear repulsion energy      4637.3315264698 Hartrees.
 IExCor=  402 DFT=T Ex+Corr=B3LYP ExCW=0 ScaHFX=  0.200000
 ScaDFX=  0.800000  0.720000  1.000000  0.810000 ScalE2=  1.000000  1.000000
 IRadAn=      5 IRanWt=     -1 IRanGd=            0 ICorTp=0 IEmpDi=131
 NAtoms=   72 NActive=   72 NUniq=   40 SFac= 3.24D+00 NAtFMM=   60 NAOKFM=T Big=F
 Integral buffers will be    131072 words long.
 Raffenetti 2 integral format.
 Two-electron integral symmetry is turned on.
 R6Disp:  Grimme-D3 Dispersion energy=       -0.0820473042 Hartrees.
 Nuclear repulsion after empirical dispersion term =     4637.2494791656 Hartrees.
 Leave Link  301 at Wed Sep 27 16:57:43 2023, MaxMem=  3221225472 cpu:               2.0 elap:               0.1
 (Enter /home/center/opt/aarch64/apps/gaussian16/c01/g16/l302.exe)
 NPDir=0 NMtPBC=     1 NCelOv=     1 NCel=       1 NClECP=     1 NCelD=      1
         NCelK=      1 NCelE2=     1 NClLst=     1 CellRange=     0.0.
 One-electron integrals computed using PRISM.
 One-electron integral symmetry used in STVInt
 NBasis=   960 RedAO= T EigKep=  3.73D-05  NBF=   504   456
 NBsUse=   960 1.00D-06 EigRej= -1.00D+00 NBFU=   504   456
 Precomputing XC quadrature grid using
 IXCGrd= 4 IRadAn=           5 IRanWt=          -1 IRanGd=           0 AccXCQ= 0.00D+00.
 Generated NRdTot=       0 NPtTot=           0 NUsed=           0 NTot=          32
 NSgBfM=   991   991   991   991   991 MxSgAt=    72 MxSgA2=    72.
 Leave Link  302 at Wed Sep 27 16:57:47 2023, MaxMem=  3221225472 cpu:              65.1 elap:               2.0
 (Enter /home/center/opt/aarch64/apps/gaussian16/c01/g16/l303.exe)
 DipDrv:  MaxL=1.
 Leave Link  303 at Wed Sep 27 16:57:50 2023, MaxMem=  3221225472 cpu:              17.6 elap:               0.5
 (Enter /home/center/opt/aarch64/apps/gaussian16/c01/g16/l401.exe)
 ExpMin= 1.03D-01 ExpMax= 4.56D+03 ExpMxC= 6.82D+02 IAcc=3 IRadAn=         5 AccDes= 0.00D+00
 Harris functional with IExCor=  402 and IRadAn=       5 diagonalized for initial guess.
 HarFok:  IExCor=  402 AccDes= 0.00D+00 IRadAn=         5 IDoV= 1 UseB2=F ITyADJ=14
 ICtDFT=  3500011 ScaDFX=  1.000000  1.000000  1.000000  1.000000
 FoFCou: FMM=F IPFlag=           0 FMFlag=      100000 FMFlg1=        2000
         NFxFlg=           0 DoJE=T BraDBF=F KetDBF=T FulRan=T
         wScrn=  0.000000 ICntrl=       500 IOpCl=  0 I1Cent=   200000004 NGrid=           0
         NMat0=    1 NMatS0=      1 NMatT0=    0 NMatD0=    1 NMtDS0=    0 NMtDT0=    0
 Petite list used in FoFCou.
 Harris En= -1694.13834097654    
 JPrj=0 DoOrth=F DoCkMO=F.
 Initial guess orbital symmetries:
       Occupied  (A") (A') (A") (A') (A") (A') (A') (A") (A") (A')
                 (A") (A') (A") (A') (A") (A') (A") (A') (A') (A")
                 (A') (A") (A') (A") (A') (A') (A') (A') (A") (A')
                 (A") (A') (A") (A') (A") (A') (A") (A') (A") (A')
                 (A") (A') (A') (A") (A') (A') (A") (A") (A') (A')
                 (A") (A") (A') (A') (A') (A') (A") (A") (A') (A')
                 (A") (A") (A") (A") (A') (A') (A') (A') (A") (A")
                 (A") (A") (A') (A') (A") (A") (A') (A') (A') (A')
                 (A') (A') (A") (A") (A") (A") (A") (A') (A") (A')
                 (A') (A') (A") (A") (A') (A') (A') (A') (A") (A")
                 (A') (A') (A") (A") (A") (A") (A') (A') (A') (A')
                 (A") (A") (A') (A') (A") (A") (A') (A') (A") (A")
                 (A") (A") (A') (A') (A') (A') (A") (A") (A') (A')
                 (A") (A") (A') (A') (A") (A") (A') (A') (A') (A')
                 (A") (A") (A") (A") (A') (A')
       Virtual   (A') (A') (A") (A") (A") (A") (A') (A') (A') (A')
                 (A") (A") (A') (A') (A") (A") (A') (A") (A') (A')
                 (A') (A') (A") (A') (A') (A") (A") (A") (A') (A')
                 (A") (A") (A') (A") (A') (A") (A') (A") (A') (A")
                 (A') (A') (A") (A") (A') (A') (A") (A') (A') (A')
                 (A') (A") (A') (A") (A') (A') (A") (A") (A') (A')
                 (A") (A") (A") (A") (A') (A') (A") (A") (A") (A')
                 (A') (A") (A') (A') (A") (A') (A") (A") (A') (A")
                 (A') (A') (A') (A") (A') (A") (A') (A') (A") (A')
                 (A') (A") (A") (A") (A') (A") (A') (A") (A') (A")
                 (A') (A') (A") (A") (A") (A') (A') (A') (A") (A')
                 (A') (A') (A") (A') (A") (A') (A") (A') (A') (A")
                 (A") (A') (A') (A") (A") (A') (A") (A") (A') (A')
                 (A") (A") (A') (A") (A') (A") (A') (A') (A") (A")
                 (A') (A') (A") (A') (A') (A") (A') (A') (A') (A")
                 (A') (A") (A') (A") (A") (A') (A') (A") (A") (A")
                 (A') (A') (A") (A') (A") (A') (A") (A') (A') (A")
                 (A') (A") (A') (A") (A') (A') (A") (A") (A') (A')
                 (A") (A") (A') (A") (A') (A") (A') (A') (A") (A')
                 (A') (A") (A') (A") (A") (A') (A') (A") (A') (A")
                 (A") (A') (A') (A") (A') (A') (A") (A') (A") (A')
                 (A") (A') (A") (A') (A") (A') (A") (A") (A") (A")
                 (A') (A') (A") (A') (A') (A") (A') (A") (A') (A")
                 (A') (A') (A') (A') (A") (A") (A') (A") (A") (A')
                 (A') (A") (A") (A') (A') (A") (A") (A') (A') (A")
                 (A") (A") (A') (A") (A') (A') (A") (A') (A') (A')
                 (A") (A') (A") (A") (A') (A") (A") (A') (A') (A")
                 (A") (A") (A") (A') (A') (A') (A") (A') (A") (A")
                 (A') (A') (A') (A') (A") (A") (A') (A') (A") (A")
                 (A') (A') (A") (A') (A") (A") (A") (A") (A") (A')
                 (A") (A') (A') (A') (A') (A') (A') (A") (A") (A')
                 (A") (A") (A") (A") (A') (A") (A') (A') (A') (A')
                 (A') (A") (A") (A') (A') (A") (A') (A") (A") (A')
                 (A") (A") (A') (A") (A') (A') (A") (A') (A") (A')
                 (A") (A') (A') (A") (A') (A") (A") (A') (A') (A")
                 (A') (A") (A') (A') (A") (A') (A') (A') (A") (A")
                 (A') (A') (A') (A") (A") (A') (A") (A") (A") (A")
                 (A") (A') (A') (A") (A') (A") (A") (A') (A') (A')
                 (A") (A') (A') (A") (A') (A') (A") (A') (A") (A")
                 (A') (A') (A') (A') (A") (A") (A') (A") (A") (A')
                 (A") (A') (A") (A') (A") (A') (A') (A") (A") (A')
                 (A") (A') (A') (A') (A") (A') (A") (A') (A") (A')
                 (A') (A') (A') (A") (A") (A') (A") (A') (A") (A')
                 (A") (A") (A") (A") (A') (A") (A') (A") (A') (A")
                 (A") (A') (A') (A") (A') (A") (A') (A") (A') (A")
                 (A') (A') (A') (A") (A") (A') (A") (A') (A') (A")
                 (A") (A') (A') (A") (A') (A") (A") (A') (A') (A")
                 (A") (A') (A") (A') (A") (A') (A") (A") (A') (A')
                 (A") (A') (A') (A") (A') (A') (A") (A") (A") (A')
                 (A") (A") (A') (A") (A") (A") (A") (A') (A') (A")
                 (A') (A') (A") (A') (A") (A') (A') (A') (A") (A")
                 (A') (A') (A') (A') (A") (A") (A") (A') (A") (A')
                 (A") (A') (A") (A') (A") (A") (A') (A') (A') (A")
                 (A") (A') (A') (A") (A") (A') (A') (A") (A") (A')
                 (A") (A") (A') (A') (A') (A") (A") (A") (A') (A")
                 (A') (A") (A') (A") (A') (A") (A") (A') (A') (A')
                 (A") (A") (A') (A') (A') (A') (A") (A") (A') (A")
                 (A') (A") (A") (A') (A") (A') (A') (A") (A") (A')
                 (A') (A') (A") (A') (A') (A") (A") (A') (A") (A')
                 (A') (A') (A") (A') (A") (A') (A') (A") (A') (A")
                 (A") (A') (A') (A") (A") (A') (A") (A') (A") (A')
                 (A") (A') (A") (A') (A') (A") (A') (A") (A') (A")
                 (A") (A') (A") (A') (A") (A') (A") (A') (A") (A')
                 (A') (A') (A') (A") (A') (A") (A") (A") (A') (A")
                 (A') (A") (A') (A") (A") (A') (A") (A') (A') (A')
                 (A") (A') (A') (A") (A') (A') (A") (A') (A") (A')
                 (A') (A") (A") (A") (A') (A") (A') (A') (A") (A')
                 (A') (A") (A") (A') (A") (A') (A") (A") (A') (A')
                 (A") (A') (A') (A") (A') (A") (A") (A') (A") (A")
                 (A') (A') (A") (A') (A") (A') (A') (A") (A") (A')
                 (A") (A') (A') (A") (A') (A") (A') (A") (A') (A")
                 (A") (A") (A') (A") (A') (A') (A') (A') (A") (A")
                 (A') (A') (A") (A") (A') (A") (A') (A') (A') (A")
                 (A') (A") (A") (A') (A") (A') (A') (A") (A') (A")
                 (A') (A") (A') (A") (A') (A') (A") (A') (A') (A')
                 (A") (A') (A") (A") (A') (A") (A') (A') (A") (A")
                 (A") (A') (A") (A') (A") (A") (A') (A") (A') (A")
                 (A') (A') (A") (A") (A') (A') (A') (A') (A") (A")
                 (A") (A") (A') (A') (A") (A') (A") (A') (A') (A')
                 (A") (A") (A") (A") (A') (A') (A') (A') (A") (A")
                 (A') (A') (A") (A") (A') (A') (A") (A') (A") (A')
                 (A') (A") (A') (A")
 The electronic state of the initial guess is 1-A'.
 Leave Link  401 at Wed Sep 27 16:57:55 2023, MaxMem=  3221225472 cpu:             108.6 elap:               2.7
 (Enter /home/center/opt/aarch64/apps/gaussian16/c01/g16/l502.exe)
 Integral symmetry usage will be decided dynamically.
 Closed shell SCF:
 Using DIIS extrapolation, IDIIS=  1040.
 NGot=  3221225472 LenX=  3219153746 LenY=  3218144726
 Requested convergence on RMS density matrix=1.00D-08 within 128 cycles.
 Requested convergence on MAX density matrix=1.00D-06.
 Requested convergence on             energy=1.00D-06.
 No special actions if energy rises.
 Fock matrices will be formed incrementally for  20 cycles.
 Integral accuracy reduced to 1.0D-05 until final iterations.

 Cycle   1  Pass 0  IDiag  1:
 FoFJK:  IHMeth= 1 ICntrl=       0 DoSepK=F KAlg= 0 I1Cent=           0 FoldK=F
 IRaf= 560000000 NMat=       1 IRICut=       1 DoRegI=T DoRafI=F ISym2E= 1 IDoP0=0 IntGTp=1.
 FoFCou: FMM=F IPFlag=           0 FMFlag=      100000 FMFlg1=        2000
         NFxFlg=           0 DoJE=F BraDBF=F KetDBF=F FulRan=T
         wScrn=  0.000000 ICntrl=         0 IOpCl=  0 I1Cent=           0 NGrid=           0
         NMat0=    1 NMatS0=      1 NMatT0=    0 NMatD0=    1 NMtDS0=    0 NMtDT0=    0
 Petite list used in FoFCou.
 E= -1693.17375051944    
 DIIS: error= 4.41D-02 at cycle   1 NSaved=   1.
 NSaved= 1 IEnMin= 1 EnMin= -1693.17375051944     IErMin= 1 ErrMin= 4.41D-02
 ErrMax= 4.41D-02  0.00D+00 EMaxC= 1.00D-01 BMatC= 8.99D-01 BMatP= 8.99D-01
 IDIUse=3 WtCom= 5.59D-01 WtEn= 4.41D-01
 Coeff-Com:  0.100D+01
 Coeff-En:   0.100D+01
 Coeff:      0.100D+01
 Gap=     0.060 Goal=   None    Shift=    0.000
 GapD=    0.060 DampG=0.500 DampE=0.500 DampFc=0.2500 IDamp=-1.
 Damping current iteration by 2.50D-01
 RMSDP=1.74D-03 MaxDP=8.40D-02              OVMax= 1.55D-01

 Cycle   2  Pass 0  IDiag  1:
 RMSU=  4.22D-04    CP:  9.82D-01
 E= -1693.48224522181     Delta-E=       -0.308494702370 Rises=F Damp=T
 DIIS: error= 2.59D-02 at cycle   2 NSaved=   2.
 NSaved= 2 IEnMin= 2 EnMin= -1693.48224522181     IErMin= 2 ErrMin= 2.59D-02
 ErrMax= 2.59D-02  0.00D+00 EMaxC= 1.00D-01 BMatC= 2.99D-01 BMatP= 8.99D-01
 IDIUse=3 WtCom= 7.41D-01 WtEn= 2.59D-01
 Coeff-Com: -0.121D+01 0.221D+01
 Coeff-En:   0.000D+00 0.100D+01
 Coeff:     -0.898D+00 0.190D+01
 Gap=     0.062 Goal=   None    Shift=    0.000
 RMSDP=7.49D-04 MaxDP=3.35D-02 DE=-3.08D-01 OVMax= 9.66D-02

 Cycle   3  Pass 0  IDiag  1:
 RMSU=  4.69D-04    CP:  9.58D-01  2.34D+00
 E= -1694.04673284573     Delta-E=       -0.564487623920 Rises=F Damp=F
 DIIS: error= 4.86D-03 at cycle   3 NSaved=   3.
 NSaved= 3 IEnMin= 3 EnMin= -1694.04673284573     IErMin= 3 ErrMin= 4.86D-03
 ErrMax= 4.86D-03  0.00D+00 EMaxC= 1.00D-01 BMatC= 1.19D-02 BMatP= 2.99D-01
 IDIUse=3 WtCom= 9.51D-01 WtEn= 4.86D-02
 Coeff-Com: -0.260D+00 0.530D+00 0.730D+00
 Coeff-En:   0.000D+00 0.000D+00 0.100D+01
 Coeff:     -0.247D+00 0.504D+00 0.743D+00
 Gap=     0.067 Goal=   None    Shift=    0.000
 RMSDP=2.47D-04 MaxDP=1.41D-02 DE=-5.64D-01 OVMax= 1.05D-01

 Cycle   4  Pass 0  IDiag  1:
 RMSU=  2.18D-04    CP:  9.59D-01  2.25D+00  7.63D-01
 E= -1694.04161870637     Delta-E=        0.005114139361 Rises=F Damp=F
 DIIS: error= 7.83D-03 at cycle   4 NSaved=   4.
 NSaved= 4 IEnMin= 3 EnMin= -1694.04673284573     IErMin= 3 ErrMin= 4.86D-03
 ErrMax= 7.83D-03  0.00D+00 EMaxC= 1.00D-01 BMatC= 1.46D-02 BMatP= 1.19D-02
 IDIUse=3 WtCom= 1.02D-01 WtEn= 8.98D-01
 Coeff-Com: -0.441D-01 0.117D+00 0.527D+00 0.400D+00
 Coeff-En:   0.000D+00 0.000D+00 0.570D+00 0.430D+00
 Coeff:     -0.448D-02 0.119D-01 0.566D+00 0.427D+00
 Gap=     0.063 Goal=   None    Shift=    0.000
 RMSDP=1.49D-04 MaxDP=9.63D-03 DE= 5.11D-03 OVMax= 8.40D-02

 Cycle   5  Pass 0  IDiag  1:
 RMSU=  7.96D-05    CP:  9.59D-01  2.24D+00  8.30D-01  4.39D-01
 E= -1694.05822920471     Delta-E=       -0.016610498344 Rises=F Damp=F
 DIIS: error= 2.32D-03 at cycle   5 NSaved=   5.
 NSaved= 5 IEnMin= 5 EnMin= -1694.05822920471     IErMin= 5 ErrMin= 2.32D-03
 ErrMax= 2.32D-03  0.00D+00 EMaxC= 1.00D-01 BMatC= 9.92D-04 BMatP= 1.19D-02
 IDIUse=3 WtCom= 9.77D-01 WtEn= 2.32D-02
 Coeff-Com: -0.159D-01 0.342D-01 0.248D+00 0.236D+00 0.497D+00
 Coeff-En:   0.000D+00 0.000D+00 0.000D+00 0.849D-02 0.992D+00
 Coeff:     -0.155D-01 0.334D-01 0.242D+00 0.231D+00 0.509D+00
 Gap=     0.064 Goal=   None    Shift=    0.000
 RMSDP=4.64D-05 MaxDP=2.93D-03 DE=-1.66D-02 OVMax= 2.70D-02

 Cycle   6  Pass 0  IDiag  1:
 RMSU=  2.47D-05    CP:  9.59D-01  2.26D+00  8.39D-01  5.13D-01  5.68D-01
 E= -1694.05907726856     Delta-E=       -0.000848063843 Rises=F Damp=F
 DIIS: error= 1.20D-03 at cycle   6 NSaved=   6.
 NSaved= 6 IEnMin= 6 EnMin= -1694.05907726856     IErMin= 6 ErrMin= 1.20D-03
 ErrMax= 1.20D-03  0.00D+00 EMaxC= 1.00D-01 BMatC= 2.42D-04 BMatP= 9.92D-04
 IDIUse=3 WtCom= 9.88D-01 WtEn= 1.20D-02
 Coeff-Com: -0.470D-02 0.719D-02 0.103D+00 0.110D+00 0.365D+00 0.419D+00
 Coeff-En:   0.000D+00 0.000D+00 0.000D+00 0.000D+00 0.216D+00 0.784D+00
 Coeff:     -0.464D-02 0.710D-02 0.102D+00 0.109D+00 0.363D+00 0.424D+00
 Gap=     0.064 Goal=   None    Shift=    0.000
 RMSDP=1.98D-05 MaxDP=1.39D-03 DE=-8.48D-04 OVMax= 1.12D-02

 Cycle   7  Pass 0  IDiag  1:
 RMSU=  8.84D-06    CP:  9.59D-01  2.26D+00  8.42D-01  4.94D-01  6.31D-01
                    CP:  3.38D-01
 E= -1694.05934623990     Delta-E=       -0.000268971346 Rises=F Damp=F
 DIIS: error= 3.22D-04 at cycle   7 NSaved=   7.
 NSaved= 7 IEnMin= 7 EnMin= -1694.05934623990     IErMin= 7 ErrMin= 3.22D-04
 ErrMax= 3.22D-04  0.00D+00 EMaxC= 1.00D-01 BMatC= 1.96D-05 BMatP= 2.42D-04
 IDIUse=3 WtCom= 9.97D-01 WtEn= 3.22D-03
 Coeff-Com: -0.142D-02 0.157D-02 0.547D-01 0.593D-01 0.214D+00 0.291D+00
 Coeff-Com:  0.381D+00
 Coeff-En:   0.000D+00 0.000D+00 0.000D+00 0.000D+00 0.000D+00 0.353D-01
 Coeff-En:   0.965D+00
 Coeff:     -0.141D-02 0.156D-02 0.546D-01 0.592D-01 0.213D+00 0.290D+00
 Coeff:      0.383D+00
 Gap=     0.064 Goal=   None    Shift=    0.000
 RMSDP=5.59D-06 MaxDP=3.01D-04 DE=-2.69D-04 OVMax= 2.39D-03

 Initial convergence to 1.0D-05 achieved.  Increase integral accuracy.
 Cycle   8  Pass 1  IDiag  1:
 E= -1694.05891602583     Delta-E=        0.000430214076 Rises=F Damp=F
 DIIS: error= 1.43D-03 at cycle   1 NSaved=   1.
 NSaved= 1 IEnMin= 1 EnMin= -1694.05891602583     IErMin= 1 ErrMin= 1.43D-03
 ErrMax= 1.43D-03  0.00D+00 EMaxC= 1.00D-01 BMatC= 5.76D-05 BMatP= 5.76D-05
 IDIUse=3 WtCom= 9.86D-01 WtEn= 1.43D-02
 Coeff-Com:  0.100D+01
 Coeff-En:   0.100D+01
 Coeff:      0.100D+01
 Gap=     0.064 Goal=   None    Shift=    0.000
 RMSDP=5.59D-06 MaxDP=3.01D-04 DE= 4.30D-04 OVMax= 2.38D-03

 Cycle   9  Pass 1  IDiag  1:
 RMSU=  4.64D-04    CP:  9.94D-01
 E= -1694.05896923476     Delta-E=       -0.000053208930 Rises=F Damp=F
 DIIS: error= 1.59D-04 at cycle   2 NSaved=   2.
 NSaved= 2 IEnMin= 2 EnMin= -1694.05896923476     IErMin= 2 ErrMin= 1.59D-04
 ErrMax= 1.59D-04  0.00D+00 EMaxC= 1.00D-01 BMatC= 3.67D-06 BMatP= 5.76D-05
 IDIUse=3 WtCom= 9.98D-01 WtEn= 1.59D-03
 Coeff-Com:  0.749D-01 0.925D+00
 Coeff-En:   0.000D+00 0.100D+01
 Coeff:      0.748D-01 0.925D+00
 Gap=     0.064 Goal=   None    Shift=    0.000
 RMSDP=8.38D-06 MaxDP=5.05D-04 DE=-5.32D-05 OVMax= 4.30D-03

 Cycle  10  Pass 1  IDiag  1:
 RMSU=  7.12D-06    CP:  9.94D-01  1.01D+00
 E= -1694.05894796091     Delta-E=        0.000021273848 Rises=F Damp=F
 DIIS: error= 4.30D-04 at cycle   3 NSaved=   3.
 NSaved= 3 IEnMin= 2 EnMin= -1694.05896923476     IErMin= 2 ErrMin= 1.59D-04
 ErrMax= 4.30D-04  0.00D+00 EMaxC= 1.00D-01 BMatC= 2.06D-05 BMatP= 3.67D-06
 IDIUse=3 WtCom= 3.25D-01 WtEn= 6.75D-01
 Coeff-Com: -0.237D-02 0.707D+00 0.295D+00
 Coeff-En:   0.000D+00 0.788D+00 0.212D+00
 Coeff:     -0.770D-03 0.761D+00 0.239D+00
 Gap=     0.064 Goal=   None    Shift=    0.000
 RMSDP=4.24D-06 MaxDP=2.98D-04 DE= 2.13D-05 OVMax= 2.75D-03

 Cycle  11  Pass 1  IDiag  1:
 RMSU=  1.24D-06    CP:  9.94D-01  1.01D+00  4.33D-01
 E= -1694.05897264748     Delta-E=       -0.000024686569 Rises=F Damp=F
 DIIS: error= 5.33D-05 at cycle   4 NSaved=   4.
 NSaved= 4 IEnMin= 4 EnMin= -1694.05897264748     IErMin= 4 ErrMin= 5.33D-05
 ErrMax= 5.33D-05  0.00D+00 EMaxC= 1.00D-01 BMatC= 8.36D-07 BMatP= 3.67D-06
 IDIUse=1 WtCom= 1.00D+00 WtEn= 0.00D+00
 Coeff-Com: -0.384D-02 0.459D+00 0.115D+00 0.430D+00
 Coeff:     -0.384D-02 0.459D+00 0.115D+00 0.430D+00
 Gap=     0.064 Goal=   None    Shift=    0.000
 RMSDP=9.33D-07 MaxDP=5.86D-05 DE=-2.47D-05 OVMax= 3.90D-04

 Cycle  12  Pass 1  IDiag  1:
 RMSU=  4.68D-07    CP:  9.94D-01  1.01D+00  3.21D-01  9.02D-01
 E= -1694.05897356973     Delta-E=       -0.000000922247 Rises=F Damp=F
 DIIS: error= 6.20D-06 at cycle   5 NSaved=   5.
 NSaved= 5 IEnMin= 5 EnMin= -1694.05897356973     IErMin= 5 ErrMin= 6.20D-06
 ErrMax= 6.20D-06  0.00D+00 EMaxC= 1.00D-01 BMatC= 6.04D-09 BMatP= 8.36D-07
 IDIUse=1 WtCom= 1.00D+00 WtEn= 0.00D+00
 Coeff-Com: -0.235D-02 0.272D+00 0.659D-01 0.270D+00 0.394D+00
 Coeff:     -0.235D-02 0.272D+00 0.659D-01 0.270D+00 0.394D+00
 Gap=     0.064 Goal=   None    Shift=    0.000
 RMSDP=1.14D-07 MaxDP=5.20D-06 DE=-9.22D-07 OVMax= 4.92D-05

 Cycle  13  Pass 1  IDiag  1:
 RMSU=  1.02D-07    CP:  9.94D-01  1.01D+00  3.23D-01  9.13D-01  9.01D-01
 E= -1694.05897357692     Delta-E=       -0.000000007192 Rises=F Damp=F
 DIIS: error= 1.71D-06 at cycle   6 NSaved=   6.
 NSaved= 6 IEnMin= 6 EnMin= -1694.05897357692     IErMin= 6 ErrMin= 1.71D-06
 ErrMax= 1.71D-06  0.00D+00 EMaxC= 1.00D-01 BMatC= 6.60D-10 BMatP= 6.04D-09
 IDIUse=1 WtCom= 1.00D+00 WtEn= 0.00D+00
 Coeff-Com: -0.886D-03 0.998D-01 0.237D-01 0.104D+00 0.255D+00 0.518D+00
 Coeff:     -0.886D-03 0.998D-01 0.237D-01 0.104D+00 0.255D+00 0.518D+00
 Gap=     0.064 Goal=   None    Shift=    0.000
 RMSDP=3.14D-08 MaxDP=2.27D-06 DE=-7.19D-09 OVMax= 1.95D-05

 Cycle  14  Pass 1  IDiag  1:
 RMSU=  2.48D-08    CP:  9.94D-01  1.01D+00  3.24D-01  9.11D-01  9.21D-01
                    CP:  8.61D-01
 E= -1694.05897357758     Delta-E=       -0.000000000658 Rises=F Damp=F
 DIIS: error= 7.33D-07 at cycle   7 NSaved=   7.
 NSaved= 7 IEnMin= 7 EnMin= -1694.05897357758     IErMin= 7 ErrMin= 7.33D-07
 ErrMax= 7.33D-07  0.00D+00 EMaxC= 1.00D-01 BMatC= 6.09D-11 BMatP= 6.60D-10
 IDIUse=1 WtCom= 1.00D+00 WtEn= 0.00D+00
 Coeff-Com: -0.343D-03 0.381D-01 0.868D-02 0.413D-01 0.121D+00 0.301D+00
 Coeff-Com:  0.490D+00
 Coeff:     -0.343D-03 0.381D-01 0.868D-02 0.413D-01 0.121D+00 0.301D+00
 Coeff:      0.490D+00
 Gap=     0.064 Goal=   None    Shift=    0.000
 RMSDP=1.38D-08 MaxDP=1.08D-06 DE=-6.58D-10 OVMax= 8.93D-06

 Cycle  15  Pass 1  IDiag  1:
 RMSU=  1.03D-08    CP:  9.94D-01  1.01D+00  3.24D-01  9.13D-01  9.20D-01
                    CP:  8.78D-01  6.58D-01
 E= -1694.05897357762     Delta-E=       -0.000000000046 Rises=F Damp=F
 DIIS: error= 3.41D-07 at cycle   8 NSaved=   8.
 NSaved= 8 IEnMin= 8 EnMin= -1694.05897357762     IErMin= 8 ErrMin= 3.41D-07
 ErrMax= 3.41D-07  0.00D+00 EMaxC= 1.00D-01 BMatC= 2.62D-11 BMatP= 6.09D-11
 IDIUse=1 WtCom= 1.00D+00 WtEn= 0.00D+00
 Coeff-Com: -0.320D-05-0.103D-03-0.532D-03 0.188D-02 0.213D-01 0.842D-01
 Coeff-Com:  0.399D+00 0.494D+00
 Coeff:     -0.320D-05-0.103D-03-0.532D-03 0.188D-02 0.213D-01 0.842D-01
 Coeff:      0.399D+00 0.494D+00
 Gap=     0.064 Goal=   None    Shift=    0.000
 RMSDP=6.50D-09 MaxDP=3.93D-07 DE=-4.64D-11 OVMax= 3.18D-06

 SCF Done:  E(RB3LYP) =  -1694.05897358     A.U. after   15 cycles
            NFock= 15  Conv=0.65D-08     -V/T= 2.0044
 KE= 1.686713333957D+03 PE=-1.320504097634D+04 EE= 5.187019189635D+03
 Leave Link  502 at Wed Sep 27 16:59:42 2023, MaxMem=  3221225472 cpu:            3838.9 elap:             105.2
 (Enter /home/center/opt/aarch64/apps/gaussian16/c01/g16/l601.exe)
 Copying SCF densities to generalized density rwf, IOpCl= 0 IROHF=0.

 **********************************************************************

            Population analysis using the SCF Density.

 **********************************************************************

 Orbital symmetries:
       Occupied  (A') (A") (A') (A") (A") (A') (A") (A') (A') (A")
                 (A') (A') (A") (A') (A") (A') (A") (A') (A") (A')
                 (A") (A') (A") (A') (A") (A') (A') (A") (A') (A")
                 (A") (A') (A") (A') (A') (A") (A') (A") (A') (A')
                 (A") (A') (A") (A') (A') (A") (A') (A") (A') (A')
                 (A") (A") (A') (A') (A") (A') (A') (A") (A') (A')
                 (A") (A") (A") (A") (A') (A') (A') (A') (A") (A")
                 (A') (A") (A") (A") (A') (A') (A") (A') (A') (A')
                 (A') (A") (A") (A') (A") (A") (A') (A") (A') (A')
                 (A") (A') (A') (A") (A") (A') (A") (A') (A") (A')
                 (A") (A') (A') (A') (A') (A') (A") (A") (A") (A')
                 (A') (A') (A") (A") (A") (A") (A") (A') (A") (A')
                 (A') (A') (A') (A") (A') (A") (A') (A") (A") (A')
                 (A") (A") (A') (A') (A") (A') (A") (A') (A') (A')
                 (A") (A") (A") (A") (A') (A')
       Virtual   (A') (A') (A") (A") (A") (A") (A') (A') (A') (A")
                 (A') (A') (A") (A') (A") (A') (A') (A') (A") (A")
                 (A') (A') (A") (A") (A') (A") (A') (A") (A") (A')
                 (A") (A') (A") (A') (A') (A") (A") (A') (A") (A')
                 (A') (A') (A') (A") (A") (A') (A") (A') (A") (A")
                 (A') (A') (A') (A') (A') (A') (A") (A') (A") (A')
                 (A") (A") (A") (A") (A') (A') (A") (A") (A') (A")
                 (A') (A') (A") (A') (A") (A') (A") (A') (A") (A")
                 (A') (A') (A') (A') (A") (A') (A') (A") (A') (A")
                 (A") (A') (A') (A") (A') (A") (A') (A") (A') (A")
                 (A') (A") (A") (A') (A') (A") (A') (A") (A") (A")
                 (A') (A') (A") (A') (A') (A") (A") (A') (A") (A')
                 (A') (A") (A') (A') (A') (A') (A') (A") (A") (A')
                 (A") (A') (A") (A') (A') (A") (A') (A") (A') (A")
                 (A') (A') (A') (A") (A") (A") (A") (A') (A") (A')
                 (A") (A") (A') (A") (A') (A') (A") (A') (A') (A")
                 (A') (A") (A') (A") (A') (A') (A") (A') (A") (A")
                 (A') (A") (A') (A') (A") (A') (A') (A") (A") (A')
                 (A") (A') (A") (A') (A") (A') (A") (A') (A") (A")
                 (A') (A') (A") (A') (A") (A') (A") (A') (A") (A')
                 (A") (A') (A') (A") (A') (A") (A') (A') (A") (A')
                 (A') (A") (A") (A") (A') (A') (A") (A') (A") (A')
                 (A") (A") (A') (A") (A") (A') (A') (A") (A') (A')
                 (A") (A') (A") (A') (A') (A") (A') (A") (A") (A')
                 (A') (A") (A') (A") (A') (A") (A") (A') (A") (A')
                 (A") (A') (A") (A") (A') (A') (A") (A') (A") (A')
                 (A') (A') (A") (A") (A') (A') (A") (A') (A") (A")
                 (A') (A") (A") (A') (A') (A") (A") (A') (A") (A')
                 (A") (A') (A') (A') (A") (A") (A") (A') (A') (A")
                 (A') (A") (A") (A') (A') (A") (A') (A') (A") (A')
                 (A") (A") (A") (A") (A') (A') (A') (A") (A') (A')
                 (A") (A") (A') (A') (A") (A") (A") (A') (A') (A')
                 (A") (A') (A") (A') (A") (A') (A') (A") (A") (A")
                 (A') (A") (A') (A") (A') (A') (A") (A") (A') (A')
                 (A") (A') (A') (A') (A") (A") (A') (A') (A") (A')
                 (A") (A") (A') (A") (A') (A') (A') (A') (A') (A")
                 (A') (A") (A') (A") (A") (A') (A") (A") (A") (A")
                 (A') (A') (A") (A") (A') (A") (A') (A") (A') (A")
                 (A') (A') (A") (A') (A') (A") (A') (A") (A') (A')
                 (A') (A") (A') (A') (A") (A") (A") (A') (A') (A")
                 (A') (A") (A") (A') (A") (A') (A') (A") (A') (A")
                 (A') (A') (A") (A") (A') (A') (A") (A') (A') (A")
                 (A') (A") (A') (A') (A') (A") (A') (A") (A") (A')
                 (A") (A") (A") (A') (A") (A") (A') (A') (A") (A')
                 (A') (A") (A") (A") (A') (A") (A') (A') (A") (A')
                 (A") (A') (A") (A') (A") (A') (A") (A") (A') (A')
                 (A") (A') (A") (A') (A") (A') (A") (A') (A') (A')
                 (A") (A") (A") (A') (A") (A") (A') (A') (A") (A')
                 (A') (A") (A") (A') (A') (A') (A") (A") (A") (A')
                 (A") (A") (A") (A') (A") (A") (A") (A') (A") (A')
                 (A') (A") (A') (A') (A') (A") (A') (A') (A") (A')
                 (A") (A') (A") (A') (A") (A') (A') (A") (A") (A')
                 (A") (A") (A') (A") (A') (A') (A') (A") (A") (A")
                 (A') (A") (A') (A") (A') (A") (A") (A') (A') (A')
                 (A") (A') (A") (A') (A") (A') (A") (A") (A') (A")
                 (A') (A") (A") (A') (A') (A') (A") (A") (A') (A")
                 (A') (A') (A') (A") (A") (A') (A") (A') (A') (A")
                 (A") (A') (A') (A') (A") (A') (A') (A') (A") (A")
                 (A") (A") (A') (A') (A") (A') (A") (A") (A') (A")
                 (A') (A') (A") (A") (A") (A') (A') (A') (A') (A')
                 (A") (A') (A") (A') (A") (A") (A') (A') (A") (A")
                 (A') (A') (A') (A") (A') (A') (A') (A") (A") (A')
                 (A") (A') (A") (A") (A') (A') (A") (A") (A") (A")
                 (A') (A') (A') (A") (A') (A') (A') (A") (A') (A")
                 (A') (A") (A") (A") (A') (A") (A') (A") (A') (A')
                 (A") (A') (A') (A") (A') (A') (A") (A') (A") (A')
                 (A") (A') (A") (A') (A") (A") (A') (A') (A') (A")
                 (A') (A") (A") (A') (A") (A') (A") (A") (A') (A')
                 (A') (A') (A") (A") (A') (A") (A') (A") (A") (A")
                 (A') (A') (A") (A') (A') (A') (A") (A") (A") (A')
                 (A') (A') (A") (A") (A') (A") (A') (A") (A") (A')
                 (A") (A') (A") (A") (A') (A') (A') (A") (A') (A")
                 (A') (A') (A") (A') (A") (A') (A') (A") (A') (A")
                 (A') (A") (A') (A") (A") (A') (A') (A") (A") (A')
                 (A') (A") (A') (A") (A') (A') (A") (A') (A') (A')
                 (A") (A') (A") (A") (A') (A") (A') (A') (A") (A")
                 (A") (A') (A") (A") (A') (A') (A") (A") (A') (A")
                 (A') (A') (A") (A") (A') (A') (A') (A') (A") (A")
                 (A") (A") (A') (A') (A") (A') (A") (A') (A') (A')
                 (A") (A") (A") (A") (A') (A') (A") (A') (A') (A")
                 (A') (A") (A') (A') (A") (A") (A') (A') (A") (A')
                 (A') (A") (A') (A")
 The electronic state is 1-A'.
 Alpha  occ. eigenvalues --  -10.19693 -10.19693 -10.19629 -10.19629 -10.19599
 Alpha  occ. eigenvalues --  -10.19598 -10.19507 -10.19507 -10.18732 -10.18662
 Alpha  occ. eigenvalues --  -10.18662 -10.18656 -10.18620 -10.18619 -10.18578
 Alpha  occ. eigenvalues --  -10.18578 -10.18498 -10.18498 -10.18489 -10.18489
 Alpha  occ. eigenvalues --  -10.18392 -10.18392 -10.17977 -10.17977 -10.17934
 Alpha  occ. eigenvalues --  -10.17934 -10.17876 -10.17876 -10.17802 -10.17802
 Alpha  occ. eigenvalues --  -10.17075 -10.17075 -10.17000 -10.17000 -10.16985
 Alpha  occ. eigenvalues --  -10.16982 -10.16981 -10.16902 -10.16902 -10.16815
 Alpha  occ. eigenvalues --  -10.16780 -10.16780 -10.16717 -10.16717  -0.90102
 Alpha  occ. eigenvalues --   -0.88602  -0.88376  -0.86928  -0.86275  -0.84625
 Alpha  occ. eigenvalues --   -0.83134  -0.81499  -0.80560  -0.79234  -0.79031
 Alpha  occ. eigenvalues --   -0.78833  -0.77609  -0.77354  -0.76698  -0.75043
 Alpha  occ. eigenvalues --   -0.74967  -0.73604  -0.73336  -0.71959  -0.69907
 Alpha  occ. eigenvalues --   -0.68253  -0.68043  -0.66419  -0.63432  -0.63055
 Alpha  occ. eigenvalues --   -0.61799  -0.61793  -0.61459  -0.60639  -0.60118
 Alpha  occ. eigenvalues --   -0.59974  -0.58990  -0.58373  -0.58348  -0.56770
 Alpha  occ. eigenvalues --   -0.53392  -0.53241  -0.52965  -0.51796  -0.51628
 Alpha  occ. eigenvalues --   -0.51382  -0.50308  -0.49190  -0.48708  -0.47812
 Alpha  occ. eigenvalues --   -0.47625  -0.46763  -0.46258  -0.46220  -0.46167
 Alpha  occ. eigenvalues --   -0.45389  -0.44785  -0.44606  -0.44550  -0.43824
 Alpha  occ. eigenvalues --   -0.43211  -0.43034  -0.42470  -0.42349  -0.42232
 Alpha  occ. eigenvalues --   -0.41922  -0.41674  -0.41404  -0.41073  -0.40849
 Alpha  occ. eigenvalues --   -0.40627  -0.40452  -0.40260  -0.39735  -0.39484
 Alpha  occ. eigenvalues --   -0.38846  -0.38674  -0.37485  -0.37319  -0.36995
 Alpha  occ. eigenvalues --   -0.36198  -0.35842  -0.35468  -0.34790  -0.34477
 Alpha  occ. eigenvalues --   -0.34450  -0.33720  -0.33532  -0.33157  -0.32956
 Alpha  occ. eigenvalues --   -0.32926  -0.32050  -0.31308  -0.30657  -0.30170
 Alpha  occ. eigenvalues --   -0.29110  -0.28736  -0.27536  -0.27289  -0.25705
 Alpha  occ. eigenvalues --   -0.25140  -0.23476  -0.23301  -0.21664  -0.18620
 Alpha  occ. eigenvalues --   -0.16913
 Alpha virt. eigenvalues --   -0.10532  -0.08826  -0.05232  -0.03560  -0.03546
 Alpha virt. eigenvalues --   -0.01860  -0.00952   0.00763   0.01301   0.01439
 Alpha virt. eigenvalues --    0.02057   0.02939   0.03282   0.03820   0.03973
 Alpha virt. eigenvalues --    0.04020   0.04728   0.05528   0.05699   0.06001
 Alpha virt. eigenvalues --    0.06121   0.06719   0.07259   0.07547   0.07773
 Alpha virt. eigenvalues --    0.08144   0.08783   0.09179   0.09529   0.09633
 Alpha virt. eigenvalues --    0.10517   0.10983   0.11122   0.11218   0.11732
 Alpha virt. eigenvalues --    0.12671   0.12974   0.13182   0.13347   0.14135
 Alpha virt. eigenvalues --    0.14364   0.15060   0.16067   0.16245   0.17357
 Alpha virt. eigenvalues --    0.17750   0.18209   0.18415   0.19058   0.19763
 Alpha virt. eigenvalues --    0.20024   0.20523   0.22228   0.22345   0.23765
 Alpha virt. eigenvalues --    0.23907   0.24064   0.24168   0.24970   0.25401
 Alpha virt. eigenvalues --    0.25599   0.26290   0.26854   0.26997   0.27449
 Alpha virt. eigenvalues --    0.27576   0.27995   0.28455   0.28675   0.28853
 Alpha virt. eigenvalues --    0.29054   0.29352   0.29670   0.30111   0.30207
 Alpha virt. eigenvalues --    0.30244   0.30574   0.31304   0.31644   0.32203
 Alpha virt. eigenvalues --    0.32397   0.34012   0.34444   0.34529   0.34922
 Alpha virt. eigenvalues --    0.35001   0.35372   0.35711   0.36109   0.36361
 Alpha virt. eigenvalues --    0.36556   0.37422   0.37506   0.37546   0.37786
 Alpha virt. eigenvalues --    0.38266   0.38448   0.38488   0.38719   0.38835
 Alpha virt. eigenvalues --    0.39306   0.39374   0.39679   0.39771   0.40238
 Alpha virt. eigenvalues --    0.40251   0.40364   0.40655   0.41361   0.41494
 Alpha virt. eigenvalues --    0.41624   0.42132   0.42269   0.42274   0.42524
 Alpha virt. eigenvalues --    0.42671   0.42955   0.43119   0.43260   0.43271
 Alpha virt. eigenvalues --    0.43345   0.44199   0.44657   0.44804   0.45106
 Alpha virt. eigenvalues --    0.45178   0.45605   0.45693   0.45790   0.45873
 Alpha virt. eigenvalues --    0.46026   0.46183   0.46428   0.46578   0.46777
 Alpha virt. eigenvalues --    0.46861   0.47087   0.47618   0.47811   0.48381
 Alpha virt. eigenvalues --    0.48484   0.48876   0.49099   0.49126   0.49201
 Alpha virt. eigenvalues --    0.50111   0.50300   0.50431   0.50599   0.50630
 Alpha virt. eigenvalues --    0.50890   0.51126   0.51813   0.52409   0.52509
 Alpha virt. eigenvalues --    0.53178   0.53308   0.53523   0.53974   0.54986
 Alpha virt. eigenvalues --    0.55005   0.56331   0.56979   0.57036   0.57238
 Alpha virt. eigenvalues --    0.57333   0.57622   0.57822   0.57928   0.58242
 Alpha virt. eigenvalues --    0.59033   0.59105   0.59445   0.59615   0.59983
 Alpha virt. eigenvalues --    0.60613   0.60937   0.61257   0.61380   0.61801
 Alpha virt. eigenvalues --    0.61971   0.62150   0.62309   0.62621   0.62917
 Alpha virt. eigenvalues --    0.63280   0.63348   0.63627   0.63657   0.63945
 Alpha virt. eigenvalues --    0.64125   0.64299   0.64517   0.65306   0.65930
 Alpha virt. eigenvalues --    0.66320   0.66442   0.67222   0.67268   0.67435
 Alpha virt. eigenvalues --    0.68249   0.68594   0.69606   0.69711   0.70230
 Alpha virt. eigenvalues --    0.71029   0.71132   0.71860   0.72100   0.72598
 Alpha virt. eigenvalues --    0.73061   0.73079   0.73901   0.74177   0.74469
 Alpha virt. eigenvalues --    0.74985   0.75627   0.75896   0.75939   0.76413
 Alpha virt. eigenvalues --    0.76733   0.77121   0.77703   0.77902   0.78468
 Alpha virt. eigenvalues --    0.78775   0.79233   0.79740   0.79778   0.80376
 Alpha virt. eigenvalues --    0.80554   0.80889   0.81948   0.81961   0.82230
 Alpha virt. eigenvalues --    0.82664   0.83409   0.83622   0.83958   0.84023
 Alpha virt. eigenvalues --    0.84745   0.85378   0.85848   0.86077   0.86922
 Alpha virt. eigenvalues --    0.87492   0.88022   0.88525   0.89702   0.90055
 Alpha virt. eigenvalues --    0.90442   0.90669   0.91558   0.92085   0.92627
 Alpha virt. eigenvalues --    0.93170   0.93314   0.93526   0.93767   0.94784
 Alpha virt. eigenvalues --    0.95015   0.95106   0.95371   0.95768   0.96393
 Alpha virt. eigenvalues --    0.96779   0.97162   0.97472   0.98002   0.98417
 Alpha virt. eigenvalues --    0.98738   0.99495   1.00350   1.00992   1.01306
 Alpha virt. eigenvalues --    1.01501   1.01994   1.02083   1.02620   1.02676
 Alpha virt. eigenvalues --    1.03132   1.03588   1.04140   1.04719   1.04845
 Alpha virt. eigenvalues --    1.05132   1.05437   1.05705   1.06247   1.06279
 Alpha virt. eigenvalues --    1.06358   1.06515   1.06597   1.06861   1.07262
 Alpha virt. eigenvalues --    1.07341   1.07422   1.08208   1.08541   1.08818
 Alpha virt. eigenvalues --    1.09462   1.09531   1.10093   1.10975   1.11282
 Alpha virt. eigenvalues --    1.11394   1.11698   1.12014   1.12957   1.13211
 Alpha virt. eigenvalues --    1.13853   1.13945   1.14133   1.14510   1.14688
 Alpha virt. eigenvalues --    1.15447   1.16237   1.16506   1.17102   1.17256
 Alpha virt. eigenvalues --    1.17949   1.18383   1.19359   1.19518   1.21106
 Alpha virt. eigenvalues --    1.21340   1.22626   1.23076   1.24279   1.24993
 Alpha virt. eigenvalues --    1.25859   1.26714   1.27833   1.28107   1.30497
 Alpha virt. eigenvalues --    1.30822   1.30984   1.32351   1.32664   1.33422
 Alpha virt. eigenvalues --    1.34652   1.35370   1.35800   1.36729   1.37717
 Alpha virt. eigenvalues --    1.38823   1.39481   1.39977   1.40485   1.40823
 Alpha virt. eigenvalues --    1.40883   1.41206   1.41503   1.41856   1.42355
 Alpha virt. eigenvalues --    1.42553   1.43791   1.44219   1.44449   1.45076
 Alpha virt. eigenvalues --    1.45091   1.46176   1.47016   1.47042   1.47311
 Alpha virt. eigenvalues --    1.47494   1.48062   1.48536   1.48771   1.49495
 Alpha virt. eigenvalues --    1.49603   1.49950   1.50045   1.50376   1.50949
 Alpha virt. eigenvalues --    1.51003   1.51462   1.51894   1.52668   1.52758
 Alpha virt. eigenvalues --    1.52887   1.53875   1.54417   1.54548   1.55160
 Alpha virt. eigenvalues --    1.55204   1.55261   1.55336   1.55348   1.55969
 Alpha virt. eigenvalues --    1.57070   1.57601   1.58169   1.58367   1.58388
 Alpha virt. eigenvalues --    1.59438   1.60238   1.60355   1.61010   1.61424
 Alpha virt. eigenvalues --    1.61874   1.61998   1.62572   1.63074   1.64624
 Alpha virt. eigenvalues --    1.65182   1.65377   1.66332   1.66501   1.67785
 Alpha virt. eigenvalues --    1.68989   1.69229   1.69641   1.70245   1.70883
 Alpha virt. eigenvalues --    1.70897   1.70988   1.71853   1.71910   1.72039
 Alpha virt. eigenvalues --    1.73049   1.73567   1.73586   1.73791   1.73987
 Alpha virt. eigenvalues --    1.74073   1.74692   1.74848   1.75722   1.76682
 Alpha virt. eigenvalues --    1.76840   1.78659   1.79084   1.79225   1.79916
 Alpha virt. eigenvalues --    1.80082   1.80564   1.80767   1.81266   1.81887
 Alpha virt. eigenvalues --    1.82064   1.82217   1.82718   1.83131   1.83157
 Alpha virt. eigenvalues --    1.83790   1.84751   1.84951   1.85066   1.85248
 Alpha virt. eigenvalues --    1.85387   1.86578   1.87010   1.87489   1.87936
 Alpha virt. eigenvalues --    1.88190   1.88322   1.88564   1.88616   1.88868
 Alpha virt. eigenvalues --    1.89137   1.89513   1.89672   1.90662   1.91141
 Alpha virt. eigenvalues --    1.91143   1.91409   1.91927   1.92075   1.92856
 Alpha virt. eigenvalues --    1.92871   1.93307   1.93965   1.94128   1.94244
 Alpha virt. eigenvalues --    1.94585   1.94737   1.95406   1.95447   1.95856
 Alpha virt. eigenvalues --    1.96413   1.96795   1.96939   1.97055   1.98375
 Alpha virt. eigenvalues --    1.99205   1.99715   2.00773   2.00953   2.01142
 Alpha virt. eigenvalues --    2.01206   2.01489   2.02450   2.03090   2.04445
 Alpha virt. eigenvalues --    2.05824   2.07136   2.07834   2.08585   2.08886
 Alpha virt. eigenvalues --    2.09269   2.09811   2.10751   2.11179   2.11707
 Alpha virt. eigenvalues --    2.11900   2.12567   2.13315   2.13807   2.15205
 Alpha virt. eigenvalues --    2.15385   2.16290   2.16556   2.16902   2.18143
 Alpha virt. eigenvalues --    2.18615   2.19601   2.20311   2.21537   2.21856
 Alpha virt. eigenvalues --    2.22467   2.23004   2.23071   2.23537   2.23860
 Alpha virt. eigenvalues --    2.24085   2.25552   2.25738   2.26512   2.26672
 Alpha virt. eigenvalues --    2.26844   2.27651   2.28089   2.28251   2.28533
 Alpha virt. eigenvalues --    2.28730   2.30006   2.30351   2.31092   2.32402
 Alpha virt. eigenvalues --    2.33992   2.35136   2.35632   2.36740   2.38708
 Alpha virt. eigenvalues --    2.38734   2.40098   2.40306   2.41359   2.41604
 Alpha virt. eigenvalues --    2.42569   2.43259   2.45066   2.45210   2.45327
 Alpha virt. eigenvalues --    2.46206   2.46388   2.46730   2.47041   2.49560
 Alpha virt. eigenvalues --    2.50043   2.51802   2.52625   2.53700   2.53937
 Alpha virt. eigenvalues --    2.54796   2.55078   2.55761   2.56764   2.56870
 Alpha virt. eigenvalues --    2.57923   2.58032   2.58586   2.59253   2.59310
 Alpha virt. eigenvalues --    2.59632   2.60532   2.60803   2.61151   2.61345
 Alpha virt. eigenvalues --    2.61522   2.62159   2.62390   2.63000   2.63093
 Alpha virt. eigenvalues --    2.63215   2.63694   2.64531   2.64597   2.65024
 Alpha virt. eigenvalues --    2.65098   2.66075   2.66162   2.66821   2.66866
 Alpha virt. eigenvalues --    2.66977   2.67814   2.68245   2.68493   2.68803
 Alpha virt. eigenvalues --    2.68830   2.69061   2.69458   2.69894   2.70142
 Alpha virt. eigenvalues --    2.70287   2.70624   2.70785   2.71050   2.71499
 Alpha virt. eigenvalues --    2.71591   2.72623   2.72722   2.73801   2.73880
 Alpha virt. eigenvalues --    2.74271   2.74958   2.75244   2.75724   2.76055
 Alpha virt. eigenvalues --    2.76684   2.77056   2.77294   2.77945   2.78106
 Alpha virt. eigenvalues --    2.78904   2.79104   2.79839   2.80106   2.80610
 Alpha virt. eigenvalues --    2.81329   2.81639   2.81981   2.82748   2.83308
 Alpha virt. eigenvalues --    2.83695   2.84161   2.85515   2.85716   2.86057
 Alpha virt. eigenvalues --    2.86560   2.86953   2.87435   2.88288   2.88794
 Alpha virt. eigenvalues --    2.90213   2.90436   2.90934   2.91478   2.92110
 Alpha virt. eigenvalues --    2.92660   2.92686   2.93218   2.94318   2.94951
 Alpha virt. eigenvalues --    2.95519   2.95583   2.96471   2.98564   2.98629
 Alpha virt. eigenvalues --    2.98642   3.00350   3.00516   3.02989   3.03376
 Alpha virt. eigenvalues --    3.05233   3.06381   3.07663   3.08386   3.08401
 Alpha virt. eigenvalues --    3.09233   3.09743   3.15621   3.16039   3.16423
 Alpha virt. eigenvalues --    3.17220   3.17839   3.18100   3.19692   3.20187
 Alpha virt. eigenvalues --    3.21256   3.21912   3.23350   3.25284   3.29392
 Alpha virt. eigenvalues --    3.29823   3.30894   3.31089   3.31708   3.33495
 Alpha virt. eigenvalues --    3.35289   3.35637   3.36428   3.36926   3.37439
 Alpha virt. eigenvalues --    3.37541   3.37744   3.38599   3.39336   3.40072
 Alpha virt. eigenvalues --    3.41138   3.41462   3.41655   3.43604   3.45080
 Alpha virt. eigenvalues --    3.45315   3.46213   3.47066   3.49166   3.49185
 Alpha virt. eigenvalues --    3.50412   3.51122   3.51529   3.52218   3.53006
 Alpha virt. eigenvalues --    3.55799   3.57323   3.58635   3.58830   3.60571
 Alpha virt. eigenvalues --    3.62261   3.62804   3.63132   3.64220   3.64373
 Alpha virt. eigenvalues --    3.65586   3.66553   3.66673   3.67422   3.68220
 Alpha virt. eigenvalues --    3.68933   3.69396   3.70399   3.70447   4.00063
 Alpha virt. eigenvalues --    4.00114   4.01255   4.01518   4.02403   4.02406
 Alpha virt. eigenvalues --    4.03115   4.03411   4.15687   4.16187   4.17468
 Alpha virt. eigenvalues --    4.18835   4.19523   4.20448   4.21075   4.22005
 Alpha virt. eigenvalues --    4.22020   4.23676   4.24309   4.25777   4.27639
 Alpha virt. eigenvalues --    4.29519   4.38090   4.40974   4.61735   4.64399
 Alpha virt. eigenvalues --    4.78496   4.79130   4.79873   4.80817   4.81166
 Alpha virt. eigenvalues --    4.82000   4.82363   4.82560   4.84749   4.85056
 Alpha virt. eigenvalues --   23.39895  23.43095  23.55081  23.58800  23.69607
 Alpha virt. eigenvalues --   23.72919  23.77876  23.79045  23.80799  23.81703
 Alpha virt. eigenvalues --   23.82641  23.84109  23.86266  23.87621  23.89143
 Alpha virt. eigenvalues --   23.89596  23.90761  23.90821  23.92364  23.94464
 Alpha virt. eigenvalues --   23.96903  23.98288  23.98713  23.99556  24.08787
 Alpha virt. eigenvalues --   24.09363  24.10060  24.10211  24.10989  24.11600
 Alpha virt. eigenvalues --   24.11923  24.13258  24.13497  24.13782  24.15036
 Alpha virt. eigenvalues --   24.15172  24.15205  24.15750  24.16703  24.16737
 Alpha virt. eigenvalues --   24.19867  24.19913  24.21557  24.21616
          Condensed to atoms (all electrons):
 Mulliken charges:
               1
     1  C   -0.054462
     2  C   -0.037495
     3  C   -0.046808
     4  C   -0.102430
     5  C   -0.086329
     6  C   -0.084969
     7  C    0.003613
     8  C   -0.055310
     9  C   -0.080497
    10  C   -0.023749
    11  H    0.085284
    12  H    0.078296
    13  H    0.077033
    14  H    0.086378
    15  H    0.098880
    16  H    0.097688
    17  C   -0.001068
    18  C   -0.055310
    19  C   -0.084562
    20  C   -0.023749
    21  H    0.076987
    22  H    0.075785
    23  C    0.003613
    24  C   -0.054462
    25  C   -0.080497
    26  C   -0.037495
    27  H    0.078296
    28  H    0.077033
    29  C   -0.046808
    30  C   -0.086329
    31  C   -0.102430
    32  C   -0.084969
    33  H    0.085284
    34  H    0.097688
    35  H    0.098880
    36  H    0.086378
    37  C   -0.019057
    38  C   -0.126935
    39  C   -0.063797
    40  C   -0.047985
    41  C   -0.085803
    42  C   -0.123637
    43  C   -0.032180
    44  C   -0.005961
    45  C   -0.007581
    46  C   -0.134233
    47  H    0.078373
    48  H    0.069990
    49  H    0.129955
    50  H    0.130698
    51  H    0.084755
    52  H    0.090842
    53  C   -0.036205
    54  C   -0.005961
    55  C   -0.012571
    56  C   -0.134233
    57  H    0.068609
    58  H    0.127888
    59  C   -0.032180
    60  C   -0.019057
    61  C   -0.007581
    62  C   -0.126935
    63  H    0.069990
    64  H    0.129955
    65  C   -0.063797
    66  C   -0.085803
    67  C   -0.047985
    68  C   -0.123637
    69  H    0.078373
    70  H    0.090842
    71  H    0.084755
    72  H    0.130698
 Sum of Mulliken charges =   0.00000
 Mulliken charges with hydrogens summed into heavy atoms:
               1
     1  C   -0.054462
     2  C   -0.037495
     3  C    0.038476
     4  C   -0.016052
     5  C    0.011359
     6  C    0.013911
     7  C    0.081909
     8  C   -0.055310
     9  C   -0.003464
    10  C   -0.023749
    17  C    0.075919
    18  C   -0.055310
    19  C   -0.008777
    20  C   -0.023749
    23  C    0.081909
    24  C   -0.054462
    25  C   -0.003464
    26  C   -0.037495
    29  C    0.038476
    30  C    0.011359
    31  C   -0.016052
    32  C    0.013911
    37  C   -0.019057
    38  C   -0.126935
    39  C    0.014576
    40  C    0.082714
    41  C    0.005040
    42  C   -0.038882
    43  C    0.037810
    44  C   -0.005961
    45  C    0.122375
    46  C   -0.134233
    53  C    0.032404
    54  C   -0.005961
    55  C    0.115316
    56  C   -0.134233
    59  C    0.037810
    60  C   -0.019057
    61  C    0.122375
    62  C   -0.126935
    65  C    0.014576
    66  C    0.005040
    67  C    0.082714
    68  C   -0.038882
         Mulliken charges condensed to fragments:
      1     -0.022611
      2      0.022611
 Electronic spatial extent (au):  <R**2>=          25848.6045
 Charge=              0.0000 electrons
 Dipole moment (field-independent basis, Debye):
    X=              0.7602    Y=             -1.6214    Z=              0.0000  Tot=              1.7908
 Quadrupole moment (field-independent basis, Debye-Ang):
   XX=           -245.6932   YY=           -249.4854   ZZ=           -219.6218
   XY=             -0.3738   XZ=              0.0000   YZ=              0.0000
 Traceless Quadrupole moment (field-independent basis, Debye-Ang):
   XX=             -7.4264   YY=            -11.2186   ZZ=             18.6450
   XY=             -0.3738   XZ=              0.0000   YZ=              0.0000
 Octapole moment (field-independent basis, Debye-Ang**2):
  XXX=             52.3548  YYY=            171.0619  ZZZ=              0.0000  XYY=             -9.9196
  XXY=            -71.6641  XXZ=              0.0000  XZZ=             13.3747  YZZ=            -36.9565
  YYZ=              0.0000  XYZ=              0.0000
 Hexadecapole moment (field-independent basis, Debye-Ang**3):
 XXXX=          -1822.4799 YYYY=         -11078.9117 ZZZZ=         -21030.5236 XXXY=           1168.3106
 XXXZ=              0.0000 YYYX=           1179.7017 YYYZ=              0.0000 ZZZX=              0.0000
 ZZZY=              0.0000 XXYY=          -2224.1643 XXZZ=          -4242.6548 YYZZ=          -5646.8725
 XXYZ=              0.0000 YYXZ=              0.0000 ZZXY=            344.9872
 N-N= 4.637249479166D+03 E-N=-1.320504098277D+04  KE= 1.686713333957D+03
 Symmetry A'   KE= 9.134402182725D+02
 Symmetry A"   KE= 7.732731156847D+02
 No NMR shielding tensors so no spin-rotation constants.
 Leave Link  601 at Wed Sep 27 16:59:46 2023, MaxMem=  3221225472 cpu:              49.3 elap:               1.5
 (Enter /home/center/opt/aarch64/apps/gaussian16/c01/g16/l122.exe)
 CPIOFr:  IOpCl= 0 IRwI=-1 IRwCP=  731 ICalc= -1 LCPTot=     1419224 Len1MO=     3708034 IndFrg=     1419224
 CPIOFr:  IOpCl= 0 IRwI=-1 IRwCP=  731 ICalc=  0 LCPTot=     1419224 Len1MO=     3708034 IndFrg=     5127258
 Counterpoise: doing calculation for fragment   1 using the basis set of the full-system, NewBq=T
 Leave Link  122 at Wed Sep 27 16:59:49 2023, MaxMem=  3221225472 cpu:               8.3 elap:               0.5
 (Enter /home/center/opt/aarch64/apps/gaussian16/c01/g16/l301.exe)
 Basis read from rwf:  (5D, 7F)
 No pseudopotential information found on rwf file.
 There are   528 symmetry adapted cartesian basis functions of A'  symmetry.
 There are   476 symmetry adapted cartesian basis functions of A"  symmetry.
 There are   504 symmetry adapted basis functions of A'  symmetry.
 There are   456 symmetry adapted basis functions of A"  symmetry.
   960 basis functions,  1632 primitive gaussians,  1004 cartesian basis functions
    73 alpha electrons       73 beta electrons
       nuclear repulsion energy      1494.3575060172 Hartrees.
 IExCor=  402 DFT=T Ex+Corr=B3LYP ExCW=0 ScaHFX=  0.200000
 ScaDFX=  0.800000  0.720000  1.000000  0.810000 ScalE2=  1.000000  1.000000
 IRadAn=      5 IRanWt=     -1 IRanGd=            0 ICorTp=0 IEmpDi=131
 NAtoms=   72 NActive=   72 NUniq=   40 SFac= 3.24D+00 NAtFMM=   60 NAOKFM=T Big=F
 Integral buffers will be    131072 words long.
 Raffenetti 2 integral format.
 Two-electron integral symmetry is turned on.
 R6Disp:  Grimme-D3 Dispersion energy=       -0.0303938888 Hartrees.
 Nuclear repulsion after empirical dispersion term =     1494.3271121284 Hartrees.
 No density basis found on file    718.
 Leave Link  301 at Wed Sep 27 16:59:51 2023, MaxMem=  3221225472 cpu:               3.5 elap:               0.1
 (Enter /home/center/opt/aarch64/apps/gaussian16/c01/g16/l302.exe)
 NPDir=0 NMtPBC=     1 NCelOv=     1 NCel=       1 NClECP=     1 NCelD=      1
         NCelK=      1 NCelE2=     1 NClLst=     1 CellRange=     0.0.
 One-electron integrals computed using PRISM.
 One-electron integral symmetry used in STVInt
 NBasis=   960 RedAO= T EigKep=  3.73D-05  NBF=   504   456
 NBsUse=   960 1.00D-06 EigRej= -1.00D+00 NBFU=   504   456
 Precomputing XC quadrature grid using
 IXCGrd= 4 IRadAn=           5 IRanWt=          -1 IRanGd=           0 AccXCQ= 0.00D+00.
 Generated NRdTot=       0 NPtTot=           0 NUsed=           0 NTot=          32
 NSgBfM=   991   991   991   991   991 MxSgAt=    72 MxSgA2=    72.
 Leave Link  302 at Wed Sep 27 16:59:55 2023, MaxMem=  3221225472 cpu:              59.8 elap:               1.6
 (Enter /home/center/opt/aarch64/apps/gaussian16/c01/g16/l303.exe)
 DipDrv:  MaxL=1.
 Leave Link  303 at Wed Sep 27 16:59:58 2023, MaxMem=  3221225472 cpu:              12.8 elap:               0.4
 (Enter /home/center/opt/aarch64/apps/gaussian16/c01/g16/l401.exe)
 ExpMin= 1.03D-01 ExpMax= 4.56D+03 ExpMxC= 6.82D+02 IAcc=3 IRadAn=         5 AccDes= 0.00D+00
 Harris functional with IExCor=  402 and IRadAn=       5 diagonalized for initial guess.
 HarFok:  IExCor=  402 AccDes= 0.00D+00 IRadAn=         5 IDoV= 1 UseB2=F ITyADJ=14
 ICtDFT=  3500011 ScaDFX=  1.000000  1.000000  1.000000  1.000000
 FoFCou: FMM=F IPFlag=           0 FMFlag=      100000 FMFlg1=        2000
         NFxFlg=           0 DoJE=T BraDBF=F KetDBF=T FulRan=T
         wScrn=  0.000000 ICntrl=       500 IOpCl=  0 I1Cent=   200000004 NGrid=           0
         NMat0=    1 NMatS0=      1 NMatT0=    0 NMatD0=    1 NMtDS0=    0 NMtDT0=    0
 Petite list used in FoFCou.
 Harris En= -847.066582229927    
 JPrj=0 DoOrth=F DoCkMO=F.
 Initial guess orbital symmetries:
       Occupied  (A") (A') (A') (A") (A") (A') (A") (A') (A') (A")
                 (A") (A') (A') (A') (A") (A') (A") (A') (A") (A')
                 (A') (A") (A') (A") (A') (A") (A') (A') (A") (A')
                 (A") (A") (A') (A') (A") (A") (A') (A") (A') (A')
                 (A') (A") (A") (A") (A') (A') (A") (A') (A') (A")
                 (A') (A") (A") (A') (A') (A") (A') (A") (A') (A")
                 (A") (A') (A') (A") (A') (A") (A') (A") (A') (A')
                 (A") (A") (A')
       Virtual   (A') (A") (A") (A') (A') (A") (A') (A") (A') (A")
                 (A') (A') (A") (A') (A") (A') (A') (A") (A') (A")
                 (A") (A") (A') (A') (A") (A') (A') (A') (A') (A")
                 (A') (A") (A") (A') (A') (A") (A') (A") (A") (A')
                 (A') (A") (A") (A') (A") (A') (A") (A') (A") (A')
                 (A') (A") (A') (A") (A') (A') (A") (A") (A') (A")
                 (A') (A') (A') (A") (A') (A") (A") (A') (A") (A')
                 (A') (A") (A") (A') (A') (A') (A") (A') (A') (A')
                 (A") (A") (A") (A") (A') (A') (A') (A") (A') (A")
                 (A") (A") (A") (A') (A') (A") (A') (A") (A') (A')
                 (A') (A") (A') (A') (A") (A') (A") (A') (A") (A')
                 (A') (A") (A") (A') (A") (A") (A') (A") (A') (A")
                 (A') (A") (A') (A") (A') (A') (A') (A") (A") (A')
                 (A') (A') (A") (A') (A") (A") (A') (A") (A') (A')
                 (A') (A") (A') (A') (A") (A") (A') (A") (A") (A')
                 (A") (A') (A") (A") (A') (A") (A') (A') (A') (A")
                 (A') (A") (A') (A") (A') (A') (A") (A') (A") (A")
                 (A") (A') (A") (A') (A') (A') (A") (A") (A') (A")
                 (A') (A") (A') (A") (A') (A") (A') (A") (A') (A')
                 (A") (A') (A') (A") (A') (A") (A') (A') (A") (A")
                 (A') (A") (A') (A") (A") (A') (A') (A") (A") (A')
                 (A') (A") (A') (A") (A') (A") (A") (A') (A") (A')
                 (A") (A') (A') (A') (A") (A") (A') (A') (A") (A')
                 (A') (A") (A') (A") (A') (A") (A") (A") (A') (A")
                 (A') (A') (A") (A") (A') (A') (A') (A") (A") (A")
                 (A') (A") (A') (A") (A') (A') (A") (A') (A') (A")
                 (A") (A') (A") (A') (A') (A') (A") (A') (A") (A")
                 (A') (A') (A") (A") (A") (A') (A") (A') (A") (A')
                 (A") (A') (A") (A') (A') (A") (A') (A") (A') (A")
                 (A') (A') (A") (A') (A') (A') (A") (A') (A") (A")
                 (A') (A') (A') (A") (A") (A') (A") (A") (A") (A')
                 (A") (A") (A') (A') (A") (A') (A') (A") (A') (A")
                 (A') (A') (A") (A") (A') (A') (A") (A') (A") (A')
                 (A') (A") (A') (A') (A") (A') (A') (A") (A') (A")
                 (A") (A") (A') (A") (A") (A') (A") (A') (A') (A')
                 (A") (A') (A") (A') (A") (A') (A") (A') (A') (A')
                 (A") (A') (A") (A') (A") (A") (A') (A") (A') (A")
                 (A') (A") (A") (A") (A') (A') (A") (A') (A") (A')
                 (A") (A') (A") (A') (A") (A') (A') (A") (A') (A')
                 (A") (A") (A") (A') (A') (A") (A') (A") (A') (A')
                 (A") (A") (A') (A") (A") (A") (A') (A') (A') (A")
                 (A') (A") (A') (A') (A") (A') (A') (A") (A") (A')
                 (A") (A') (A") (A") (A') (A') (A") (A") (A") (A')
                 (A') (A") (A') (A') (A') (A') (A") (A") (A') (A")
                 (A") (A') (A') (A") (A') (A") (A') (A") (A') (A")
                 (A") (A') (A') (A') (A") (A') (A') (A") (A") (A")
                 (A") (A') (A') (A') (A") (A") (A") (A') (A') (A')
                 (A') (A") (A") (A") (A') (A") (A") (A') (A') (A")
                 (A') (A") (A") (A') (A") (A') (A') (A") (A") (A')
                 (A") (A') (A') (A') (A") (A") (A') (A") (A') (A")
                 (A') (A") (A') (A") (A') (A") (A') (A") (A') (A')
                 (A") (A') (A") (A") (A") (A') (A") (A') (A') (A')
                 (A') (A") (A") (A") (A') (A") (A') (A") (A') (A")
                 (A') (A') (A') (A") (A') (A") (A') (A") (A') (A")
                 (A') (A") (A') (A") (A') (A') (A") (A') (A") (A')
                 (A") (A') (A") (A') (A') (A") (A') (A") (A') (A")
                 (A') (A") (A') (A") (A") (A') (A") (A") (A') (A")
                 (A') (A') (A') (A') (A") (A') (A') (A") (A') (A")
                 (A") (A") (A") (A') (A') (A') (A") (A") (A") (A')
                 (A') (A") (A') (A') (A') (A') (A") (A") (A') (A")
                 (A") (A') (A") (A") (A') (A") (A') (A') (A') (A")
                 (A") (A') (A') (A") (A') (A") (A') (A") (A') (A')
                 (A") (A') (A") (A") (A') (A") (A") (A') (A') (A")
                 (A") (A") (A') (A") (A") (A') (A') (A') (A') (A')
                 (A") (A") (A") (A') (A') (A") (A') (A') (A") (A")
                 (A') (A") (A') (A") (A') (A") (A") (A') (A") (A')
                 (A") (A') (A") (A') (A") (A') (A") (A') (A") (A')
                 (A') (A") (A") (A') (A') (A") (A') (A") (A') (A')
                 (A") (A') (A") (A') (A") (A') (A') (A") (A') (A")
                 (A') (A") (A') (A') (A") (A") (A') (A") (A') (A')
[...]
                 (A") (A') (A') (A') (A") (A') (A") (A") (A") (A')
                 (A') (A") (A') (A") (A") (A') (A") (A') (A') (A')
                 (A') (A') (A") (A") (A") (A") (A') (A") (A') (A")
                 (A') (A') (A') (A") (A") (A') (A') (A") (A') (A")
                 (A') (A") (A") (A") (A') (A') (A") (A') (A') (A")
                 (A') (A") (A") (A') (A') (A") (A') (A") (A') (A")
                 (A") (A') (A') (A') (A') (A") (A") (A") (A') (A")
                 (A') (A") (A') (A") (A') (A') (A") (A") (A') (A")
                 (A') (A") (A') (A") (A') (A') (A") (A') (A") (A")
                 (A') (A") (A') (A') (A") (A") (A') (A") (A') (A")
                 (A') (A') (A") (A') (A') (A") (A") (A') (A') (A')
                 (A") (A') (A") (A") (A") (A") (A') (A") (A') (A')
                 (A") (A') (A") (A') (A') (A') (A") (A') (A") (A')
                 (A") (A") (A') (A') (A") (A") (A') (A') (A") (A')
                 (A') (A') (A') (A") (A") (A") (A") (A') (A') (A")
                 (A') (A") (A") (A') (A") (A') (A") (A') (A") (A')
                 (A") (A') (A') (A") (A') (A") (A") (A') (A') (A")
                 (A") (A') (A') (A") (A") (A') (A") (A") (A") (A')
                 (A') (A") (A') (A') (A") (A') (A') (A") (A') (A")
                 (A") (A') (A") (A') (A') (A") (A") (A") (A') (A')
                 (A") (A') (A') (A") (A") (A") (A') (A") (A') (A')
                 (A") (A') (A") (A') (A") (A') (A') (A') (A") (A')
                 (A") (A") (A') (A') (A") (A") (A') (A") (A') (A")
                 (A') (A') (A") (A") (A') (A') (A") (A') (A') (A')
                 (A") (A") (A') (A") (A') (A") (A') (A") (A') (A')
                 (A') (A") (A") (A") (A') (A") (A') (A') (A') (A")
                 (A") (A') (A") (A') (A') (A") (A') (A") (A") (A')
                 (A') (A") (A') (A") (A") (A') (A') (A") (A') (A")
                 (A') (A") (A') (A") (A') (A") (A") (A') (A') (A")
                 (A') (A") (A') (A') (A") (A") (A') (A") (A') (A')
                 (A") (A') (A") (A') (A') (A") (A') (A") (A') (A")
                 (A") (A') (A") (A') (A") (A') (A") (A') (A') (A")
                 (A") (A') (A") (A') (A') (A") (A") (A') (A') (A")
                 (A') (A") (A') (A") (A') (A') (A")
 The electronic state is 1-A'.
 Alpha  occ. eigenvalues --  -10.18931 -10.18930 -10.18896 -10.18895 -10.18848
 Alpha  occ. eigenvalues --  -10.18848 -10.18813 -10.18813 -10.17956 -10.17955
 Alpha  occ. eigenvalues --  -10.17920 -10.17920 -10.17919 -10.17919 -10.17875
 Alpha  occ. eigenvalues --  -10.17875 -10.17863 -10.17863 -10.17808 -10.17808
 Alpha  occ. eigenvalues --  -10.17781 -10.17781  -0.89340  -0.87865  -0.85549
 Alpha  occ. eigenvalues --   -0.82415  -0.79820  -0.78521  -0.78314  -0.75991
 Alpha  occ. eigenvalues --   -0.74255  -0.72901  -0.69196  -0.67344  -0.62728
 Alpha  occ. eigenvalues --   -0.62370  -0.61108  -0.59964  -0.59301  -0.57689
 Alpha  occ. eigenvalues --   -0.52709  -0.52573  -0.52293  -0.49654  -0.48513
 Alpha  occ. eigenvalues --   -0.47160  -0.46110  -0.45590  -0.45476  -0.43928
 Alpha  occ. eigenvalues --   -0.43182  -0.42578  -0.41808  -0.41572  -0.41386
 Alpha  occ. eigenvalues --   -0.40692  -0.40405  -0.39579  -0.38193  -0.36732
 Alpha  occ. eigenvalues --   -0.36341  -0.35550  -0.34094  -0.33809  -0.33058
 Alpha  occ. eigenvalues --   -0.32930  -0.31612  -0.29665  -0.28406  -0.26623
 Alpha  occ. eigenvalues --   -0.24364  -0.22582  -0.17855
 Alpha virt. eigenvalues --   -0.09755  -0.04464  -0.02747  -0.00147   0.02073
 Alpha virt. eigenvalues --    0.02370   0.03189   0.04746   0.04859   0.04871
 Alpha virt. eigenvalues --    0.06161   0.06575   0.07968   0.08162   0.08303
 Alpha virt. eigenvalues --    0.09607   0.10049   0.11524   0.11533   0.13796
 Alpha virt. eigenvalues --    0.14111   0.14670   0.18092   0.18194   0.18832
 Alpha virt. eigenvalues --    0.19391   0.22815   0.23002   0.24379   0.24942
 Alpha virt. eigenvalues --    0.25581   0.27528   0.27575   0.28012   0.28228
 Alpha virt. eigenvalues --    0.28947   0.29389   0.30158   0.30759   0.31175
 Alpha virt. eigenvalues --    0.32897   0.34528   0.36420   0.36484   0.37134
 Alpha virt. eigenvalues --    0.37503   0.37629   0.37651   0.38116   0.38643
 Alpha virt. eigenvalues --    0.39094   0.39439   0.39739   0.40236   0.40435
 Alpha virt. eigenvalues --    0.41918   0.41926   0.41940   0.42289   0.42318
 Alpha virt. eigenvalues --    0.42643   0.43748   0.44233   0.44835   0.45295
 Alpha virt. eigenvalues --    0.45683   0.45924   0.45953   0.46379   0.47165
 Alpha virt. eigenvalues --    0.47805   0.47809   0.47978   0.48073   0.48231
 Alpha virt. eigenvalues --    0.48568   0.49414   0.49572   0.51377   0.51846
 Alpha virt. eigenvalues --    0.52370   0.53118   0.53671   0.55998   0.57923
 Alpha virt. eigenvalues --    0.57955   0.59048   0.59201   0.60433   0.60585
 Alpha virt. eigenvalues --    0.60693   0.61101   0.61690   0.62105   0.62173
 Alpha virt. eigenvalues --    0.63432   0.63481   0.64458   0.64535   0.65533
 Alpha virt. eigenvalues --    0.66693   0.66910   0.67680   0.67724   0.70658
 Alpha virt. eigenvalues --    0.71305   0.71405   0.71494   0.72803   0.73989
 Alpha virt. eigenvalues --    0.75405   0.75894   0.76289   0.77801   0.77809
 Alpha virt. eigenvalues --    0.78943   0.79160   0.79723   0.81162   0.81509
 Alpha virt. eigenvalues --    0.82881   0.83001   0.84383   0.84585   0.84713
 Alpha virt. eigenvalues --    0.88087   0.89711   0.89765   0.91536   0.92083
 Alpha virt. eigenvalues --    0.92578   0.93749   0.95806   0.96107   0.96442
 Alpha virt. eigenvalues --    0.96590   0.96905   0.98547   1.00356   1.01118
 Alpha virt. eigenvalues --    1.02686   1.03027   1.03354   1.04405   1.05244
 Alpha virt. eigenvalues --    1.05439   1.05525   1.05950   1.07395   1.07547
 Alpha virt. eigenvalues --    1.07686   1.08438   1.10005   1.10036   1.12070
 Alpha virt. eigenvalues --    1.13223   1.13544   1.13650   1.14526   1.15341
 Alpha virt. eigenvalues --    1.17432   1.18332   1.19657   1.20432   1.23014
 Alpha virt. eigenvalues --    1.23618   1.27884   1.28234   1.30579   1.32076
 Alpha virt. eigenvalues --    1.32743   1.34942   1.37641   1.39236   1.39896
 Alpha virt. eigenvalues --    1.39942   1.40725   1.42751   1.43476   1.43554
 Alpha virt. eigenvalues --    1.45057   1.46086   1.47119   1.47538   1.48841
 Alpha virt. eigenvalues --    1.49280   1.49417   1.50258   1.50674   1.52268
 Alpha virt. eigenvalues --    1.52650   1.53402   1.54331   1.54372   1.54781
 Alpha virt. eigenvalues --    1.54807   1.57107   1.57715   1.58569   1.59882
 Alpha virt. eigenvalues --    1.60106   1.62692   1.63242   1.64856   1.66641
 Alpha virt. eigenvalues --    1.69292   1.69605   1.69709   1.70649   1.71804
 Alpha virt. eigenvalues --    1.72459   1.72619   1.73075   1.73096   1.73680
 Alpha virt. eigenvalues --    1.77494   1.78519   1.79157   1.79419   1.80511
 Alpha virt. eigenvalues --    1.81616   1.81887   1.82058   1.83581   1.84039
 Alpha virt. eigenvalues --    1.85487   1.87392   1.87456   1.87577   1.87728
 Alpha virt. eigenvalues --    1.88131   1.88613   1.90743   1.91387   1.92190
 Alpha virt. eigenvalues --    1.92193   1.92572   1.92670   1.93517   1.93938
 Alpha virt. eigenvalues --    1.94544   1.95483   1.97262   1.99429   2.00088
 Alpha virt. eigenvalues --    2.00602   2.01362   2.03019   2.05757   2.08293
 Alpha virt. eigenvalues --    2.09111   2.09256   2.09792   2.12192   2.14098
 Alpha virt. eigenvalues --    2.15528   2.15584   2.17200   2.19751   2.20833
 Alpha virt. eigenvalues --    2.21576   2.22525   2.23381   2.24503   2.26441
 Alpha virt. eigenvalues --    2.26972   2.27242   2.27719   2.28046   2.29391
 Alpha virt. eigenvalues --    2.33301   2.35725   2.39155   2.39384   2.40817
 Alpha virt. eigenvalues --    2.42649   2.43076   2.45776   2.45994   2.46870
 Alpha virt. eigenvalues --    2.51623   2.51954   2.53354   2.53485   2.55138
 Alpha virt. eigenvalues --    2.56159   2.58701   2.58838   2.59764   2.59776
 Alpha virt. eigenvalues --    2.60682   2.61147   2.61719   2.62222   2.63349
 Alpha virt. eigenvalues --    2.63999   2.64478   2.66054   2.66794   2.67121
 Alpha virt. eigenvalues --    2.67374   2.68356   2.68872   2.68876   2.69372
 Alpha virt. eigenvalues --    2.69557   2.69907   2.70083   2.70281   2.73482
 Alpha virt. eigenvalues --    2.74771   2.74836   2.76066   2.77101   2.77577
 Alpha virt. eigenvalues --    2.78232   2.78455   2.78850   2.80822   2.82359
 Alpha virt. eigenvalues --    2.85535   2.85993   2.86737   2.87294   2.90966
 Alpha virt. eigenvalues --    2.91783   2.92195   2.93676   2.95232   2.95887
 Alpha virt. eigenvalues --    2.99270   2.99858   3.03165   3.05604   3.06852
 Alpha virt. eigenvalues --    3.07371   3.15988   3.16029   3.16647   3.19843
 Alpha virt. eigenvalues --    3.20017   3.23601   3.29134   3.29680   3.31610
 Alpha virt. eigenvalues --    3.35095   3.35458   3.35677   3.35858   3.38023
 Alpha virt. eigenvalues --    3.39887   3.41413   3.44960   3.45362   3.47993
 Alpha virt. eigenvalues --    3.48278   3.50401   3.53073   3.57439   3.58649
 Alpha virt. eigenvalues --    3.61466   3.62620   3.63208   3.63698   3.65910
 Alpha virt. eigenvalues --    3.67534   3.67678   4.00384   4.00442   4.01859
 Alpha virt. eigenvalues --    4.02182   4.16133   4.16678   4.17360   4.21240
 Alpha virt. eigenvalues --    4.22396   4.22517   4.25488   4.38492   4.62290
 Alpha virt. eigenvalues --    4.79179   4.79740   4.80562   4.82562   4.83014
 Alpha virt. eigenvalues --   23.39176  23.54541  23.69085  23.77378  23.80419
 Alpha virt. eigenvalues --   23.81537  23.86099  23.89067  23.89154  23.92210
 Alpha virt. eigenvalues --   23.97563  23.98365  24.09049  24.09932  24.10529
 Alpha virt. eigenvalues --   24.12220  24.13779  24.14375  24.15775  24.15810
 Alpha virt. eigenvalues --   24.20452  24.20497
          Condensed to atoms (all electrons):
 Mulliken charges:
               1
     1  C    0.000000
     2  C    0.000000
     3  C    0.000000
     4  C    0.000000
     5  C    0.000000
     6  C    0.000000
     7  C    0.000000
     8  C    0.000000
     9  C    0.000000
    10  C    0.000000
    11  H    0.000000
    12  H    0.000000
    13  H    0.000000
    14  H    0.000000
    15  H    0.000000
    16  H    0.000000
    17  C    0.000000
    18  C    0.000000
    19  C    0.000000
    20  C    0.000000
    21  H    0.000000
    22  H    0.000000
    23  C    0.000000
    24  C    0.000000
    25  C    0.000000
    26  C    0.000000
    27  H    0.000000
    28  H    0.000000
    29  C    0.000000
    30  C    0.000000
    31  C    0.000000
    32  C    0.000000
    33  H    0.000000
    34  H    0.000000
    35  H    0.000000
    36  H    0.000000
    37  C   -0.059168
    38  C   -0.059168
    39  C   -0.055977
    40  C   -0.055977
    41  C   -0.092198
    42  C   -0.092198
    43  C   -0.016525
    44  C   -0.054498
    45  C   -0.016525
    46  C   -0.054498
    47  H    0.082122
    48  H    0.074853
    49  H    0.074853
    50  H    0.082122
    51  H    0.094847
    52  H    0.094847
    53  C   -0.020341
    54  C   -0.054498
    55  C   -0.020341
    56  C   -0.054498
    57  H    0.073428
    58  H    0.073428
    59  C   -0.016525
    60  C   -0.059168
    61  C   -0.016525
    62  C   -0.059168
    63  H    0.074853
    64  H    0.074853
    65  C   -0.055977
    66  C   -0.092198
    67  C   -0.055977
    68  C   -0.092198
    69  H    0.082122
    70  H    0.094847
    71  H    0.094847
    72  H    0.082122
 Sum of Mulliken charges =   0.00000
 Mulliken charges with hydrogens summed into heavy atoms:
               1
     1  C    0.000000
     2  C    0.000000
     3  C    0.000000
     4  C    0.000000
     5  C    0.000000
     6  C    0.000000
     7  C    0.000000
     8  C    0.000000
     9  C    0.000000
    10  C    0.000000
    17  C    0.000000
    18  C    0.000000
    19  C    0.000000
    20  C    0.000000
    23  C    0.000000
    24  C    0.000000
    25  C    0.000000
    26  C    0.000000
    29  C    0.000000
    30  C    0.000000
    31  C    0.000000
    32  C    0.000000
    37  C   -0.059168
    38  C   -0.059168
    39  C    0.026144
    40  C    0.026144
    41  C    0.002649
    42  C    0.002649
    43  C    0.058328
    44  C   -0.054498
    45  C    0.058328
    46  C   -0.054498
    53  C    0.053087
    54  C   -0.054498
    55  C    0.053087
    56  C   -0.054498
    59  C    0.058328
    60  C   -0.059168
    61  C    0.058328
    62  C   -0.059168
    65  C    0.026144
    66  C    0.002649
    67  C    0.026144
    68  C    0.002649
         Mulliken charges condensed to fragments:
      1      0.000000
      2      0.000000
 Electronic spatial extent (au):  <R**2>=          19856.0385
 Charge=              0.0000 electrons
 Dipole moment (field-independent basis, Debye):
    X=              0.0000    Y=              0.0000    Z=              0.0000  Tot=              0.0000
 Quadrupole moment (field-independent basis, Debye-Ang):
   XX=           -136.3921   YY=           -110.7480   ZZ=           -109.0115
   XY=              0.0000   XZ=              0.0000   YZ=              0.0000
 Traceless Quadrupole moment (field-independent basis, Debye-Ang):
   XX=            -17.6749   YY=              7.9692   ZZ=              9.7057
   XY=              0.0000   XZ=              0.0000   YZ=              0.0000
 Octapole moment (field-independent basis, Debye-Ang**2):
  XXX=           1301.9906  YYY=           1057.1942  ZZZ=              0.0000  XYY=            352.3981
  XXY=            433.9969  XXZ=              0.0000  XZZ=            346.8724  YZZ=            346.8724
  YYZ=              0.0000  XYZ=              0.0000
 Hexadecapole moment (field-independent basis, Debye-Ang**3):
 XXXX=          -8440.2215 YYYY=          -7844.6597 ZZZZ=         -10461.4324 XXXY=          -4142.9088
 XXXZ=              0.0000 YYYX=          -3363.9715 YYYZ=              0.0000 ZZZX=              0.0000
 ZZZY=              0.0000 XXYY=          -2758.7088 XXZZ=          -3311.6732 YYZZ=          -3072.9556
 XXYZ=              0.0000 YYXZ=              0.0000 ZZXY=          -1103.7412
 N-N= 1.494327111597D+03 E-N=-4.953709174724D+03  KE= 8.433374904838D+02
 Symmetry A'   KE= 4.567052305353D+02
 Symmetry A"   KE= 3.866322599485D+02
 No NMR shielding tensors so no spin-rotation constants.
 Leave Link  601 at Wed Sep 27 17:17:05 2023, MaxMem=  3221225472 cpu:              18.1 elap:               0.5
 (Enter /home/center/opt/aarch64/apps/gaussian16/c01/g16/l122.exe)
 CPIOFr:  IOpCl= 0 IRwI=-1 IRwCP=  731 ICalc=  4 LCPTot=     1419224 Len1MO=     3708034 IndFrg=    19959394
 Restoring MOs from calculation   1 to rwf.
 CPIOFr:  IOpCl= 0 IRwI=-2 IRwCP=  731 ICalc=  0 LCPTot=     1419224 Len1MO=     3708034 IndFrg=     5127258
 Counterpoise corrected energy =   -1694.040635791337
                   BSSE energy =      -0.000001056164
              sum of fragments =   -1694.039683044260
           complexation energy =      -0.60 kcal/mole (raw)
           complexation energy =      -0.60 kcal/mole (corrected)
 Leave Link  122 at Wed Sep 27 17:17:08 2023, MaxMem=  3221225472 cpu:               8.3 elap:               0.3
 (Enter /home/center/opt/aarch64/apps/gaussian16/c01/g16/l9999.exe)

 Test job not archived.
 1\1\GINC-FX0479\SP\RB3LYP\6-311G(d,p)\C44H28\Z40145W\27-Sep-2023\0\\#P
  TEST b3lyp/6-311G** EmpiricalDispersion=GD3 counterpoise=2\\pentacene
 _A1=0_A2=0_A3=45_p2\\0,1\C,0,-0.5039478476,0.5239478476,-3.6612755801\
 C,0,0.5239480325,-0.5039480325,-3.6612755629\C,0,-0.9861248463,1.00612
 48463,-4.9235927708\C,0,1.0061250889,-0.9861250889,-4.9235926697\C,0,-
 0.4963213507,0.5163213507,-6.096356521\C,0,0.5163216812,-0.4963216812,
 -6.0963564796\C,0,-0.9844684311,1.0044684311,-2.4533174875\C,0,-0.5044
 88426,0.524488426,-1.2140288145\C,0,1.0044685359,-0.9844685359,-2.4533
 173917\C,0,0.5244885437,-0.5044885437,-1.2140288362\H,0,-1.7533559667,
 1.7733559667,-4.9232600459\H,0,-1.7521866813,1.7721866813,-2.453928581
 5\H,0,1.7721859268,-1.7521859268,-2.4539284818\H,0,1.7733558421,-1.753
 3558421,-4.9232597785\H,0,0.8905568758,-0.8705568758,-7.0425276922\H,0
 ,-0.8705565046,0.8905565046,-7.042527775\C,0,-0.9848184961,1.004818496
 1,0.0099998782\C,0,-0.5044883957,0.5244883957,1.2340295553\C,0,1.00481
 85643,-0.9848185643,0.0099998696\C,0,0.5244885146,-0.5044885146,1.2340
 295261\H,0,-1.7524699697,1.7724699697,0.0099999205\H,0,1.772468921,-1.
 752468921,0.0099999641\C,0,-0.9844683048,1.0044683048,2.4733171385\C,0
 ,-0.5039477114,0.5239477114,3.681276331\C,0,1.0044684211,-0.9844684211
 ,2.4733170835\C,0,0.5239479079,-0.5039479079,3.6812763217\H,0,-1.75218
 65527,1.7721865527,2.4739285326\H,0,1.7721858092,-1.7521858092,2.47392
 83796\C,0,-0.9861245177,1.0061245177,4.9435920588\C,0,-0.4963209372,0.
 5163209372,6.116356633\C,0,1.0061247659,-0.9861247659,4.9435919377\C,0
 ,0.5163212637,-0.4963212637,6.1163566075\H,0,-1.7533556504,1.773355650
 4,4.9432601504\H,0,-0.8705567426,0.8905567426,7.0625274368\H,0,0.89055
 70967,-0.8705570967,7.0625272142\H,0,1.7733555414,-1.7533555414,4.9432
 599297\C,0,8.4960521524,0.5239478476,-3.6612755801\C,0,9.5239480325,-0
 .5039480325,-3.6612755629\C,0,8.0138751537,1.0061248463,-4.9235927708\
 C,0,10.0061250889,-0.9861250889,-4.9235926697\C,0,8.5036786493,0.51632
 13507,-6.096356521\C,0,9.5163216812,-0.4963216812,-6.0963564796\C,0,8.
 0155315689,1.0044684311,-2.4533174875\C,0,8.495511574,0.524488426,-1.2
 140288145\C,0,10.0044685359,-0.9844685359,-2.4533173917\C,0,9.52448854
 37,-0.5044885437,-1.2140288362\H,0,7.2466440333,1.7733559667,-4.923260
 0459\H,0,7.2478133187,1.7721866813,-2.4539285815\H,0,10.7721859268,-1.
 7521859268,-2.4539284818\H,0,10.7733558421,-1.7533558421,-4.9232597785
 \H,0,9.8905568758,-0.8705568758,-7.0425276922\H,0,8.1294434954,0.89055
 65046,-7.042527775\C,0,8.0151815039,1.0048184961,0.0099998782\C,0,8.49
 55116043,0.5244883957,1.2340295553\C,0,10.0048185643,-0.9848185643,0.0
 099998696\C,0,9.5244885146,-0.5044885146,1.2340295261\H,0,7.2475300303
 ,1.7724699697,0.0099999205\H,0,10.772468921,-1.752468921,0.0099999641\
 C,0,8.0155316952,1.0044683048,2.4733171385\C,0,8.4960522886,0.52394771
 14,3.681276331\C,0,10.0044684211,-0.9844684211,2.4733170835\C,0,9.5239
 479079,-0.5039479079,3.6812763217\H,0,7.2478134473,1.7721865527,2.4739
 285326\H,0,10.7721858092,-1.7521858092,2.4739283796\C,0,8.0138754823,1
 .0061245177,4.9435920588\C,0,8.5036790628,0.5163209372,6.116356633\C,0
 ,10.0061247659,-0.9861247659,4.9435919377\C,0,9.5163212637,-0.49632126
 37,6.1163566075\H,0,7.2466443496,1.7733556504,4.9432601504\H,0,8.12944
 32574,0.8905567426,7.0625274368\H,0,9.8905570967,-0.8705570967,7.06252
 72142\H,0,10.7733555414,-1.7533555414,4.9432599297\\Version=Fujitsu-Ar
 m-G16RevC.01\State=1-A'\HF=-847.0198415\RMSD=3.182e-09\Dipole=0.000020
 7,-0.0000207,0.\Quadrupole=-7.7321622,-6.685189,14.4173512,-18.4800291
 ,0.,0.\PG=CS [SG(C4H4),X(C40H24)]\\@


 LORD, MAN... WERE YE BUT WHYLES WHERE I AM, 
 THE GENTILES YE WAD NE'ER ENVY 'EM.        
 IT'S TRUE, THEY NEEDNA STARVE OR SWEAT,     
 THRO' WINTER'S CAULD OR SIMMER'S HEAT...  
 THEY'VE NAE SAIR WARK TO CRAZE THEIR BANES, 
 AND FILL AULD AGE WITH GRIPS AN' GRANES...  
                                             
 BUT HUMAN BODIES ARE SIC FOOLS              
 FOR A' THEIR COLLEGES AND SCHOOLS,           
 THAT WHEN NAE REAL ILLS PERPLEX THEM,       
 THEY MAK ENOW THEMSELVES TO VEX THEM,       
 AN' AYE THE LESS THEY HAE TO STURT THEM,    
 IN LIKE PROPORTION LESS WILL HURT THEM....  
                                             
                (ROBERT BURNS 'THE TWA DOGS')
 Job cpu time:       0 days  2 hours 39 minutes 40.1 seconds.
 Elapsed time:       0 days  0 hours  4 minutes 15.2 seconds.
 File lengths (MBytes):  RWF=    718 Int=      0 D2E=      0 Chk=    208 Scr=      1
 Normal termination of Gaussian 16 at Wed Sep 27 17:17:13 2023.
