 Entering Gaussian System, Link 0=g16
 Initial command:
 /home/center/opt/aarch64/apps/gaussian16/c01/g16/l1.exe "/data/tmp/Gtmp/1006959/Gau-50.inp" -scrdir="/data/tmp/Gtmp/1006959/"
 Entering Link 1 = /home/center/opt/aarch64/apps/gaussian16/c01/g16/l1.exe PID=        51.
  
 Copyright (c) 1988-2019, Gaussian, Inc.  All Rights Reserved.
  
 This is part of the Gaussian(R) 16 program.  It is based on
 the Gaussian(R) 09 system (copyright 2009, Gaussian, Inc.),
 the Gaussian(R) 03 system (copyright 2003, Gaussian, Inc.),
 the Gaussian(R) 98 system (copyright 1998, Gaussian, Inc.),
 the Gaussian(R) 94 system (copyright 1995, Gaussian, Inc.),
 the Gaussian 92(TM) system (copyright 1992, Gaussian, Inc.),
 the Gaussian 90(TM) system (copyright 1990, Gaussian, Inc.),
 the Gaussian 88(TM) system (copyright 1988, Gaussian, Inc.),
 the Gaussian 86(TM) system (copyright 1986, Carnegie Mellon
 University), and the Gaussian 82(TM) system (copyright 1983,
 Carnegie Mellon University). Gaussian is a federally registered
 trademark of Gaussian, Inc.
  
 This software contains proprietary and confidential information,
 including trade secrets, belonging to Gaussian, Inc.
  
 This software is provided under written license and may be
 used, copied, transmitted, or stored only in accord with that
 written license.
  
 The following legend is applicable only to US Government
 contracts under FAR:
  
                    RESTRICTED RIGHTS LEGEND
  
 Use, reproduction and disclosure by the US Government is
 subject to restrictions as set forth in subparagraphs (a)
 and (c) of the Commercial Computer Software - Restricted
 Rights clause in FAR 52.227-19.
  
 Gaussian, Inc.
 340 Quinnipiac St., Bldg. 40, Wallingford CT 06492
  
  
 ---------------------------------------------------------------
 Warning -- This program may not be used in any manner that
 competes with the business of Gaussian, Inc. or will provide
 assistance to any competitor of Gaussian, Inc.  The licensee
 of this program is prohibited from giving any competitor of
 Gaussian, Inc. access to this program.  By using this program,
 the user acknowledges that Gaussian, Inc. is engaged in the
 business of creating and licensing software in the field of
 computational chemistry and represents and warrants to the
 licensee that it is not a competitor of Gaussian, Inc. and that
 it will not use this program in any manner prohibited above.
 ---------------------------------------------------------------
  

 Cite this work as:
 Gaussian 16, Revision C.01,
 M. J. Frisch, G. W. Trucks, H. B. Schlegel, G. E. Scuseria, 
 M. A. Robb, J. R. Cheeseman, G. Scalmani, V. Barone, 
 G. A. Petersson, H. Nakatsuji, X. Li, M. Caricato, A. V. Marenich, 
 J. Bloino, B. G. Janesko, R. Gomperts, B. Mennucci, H. P. Hratchian, 
 J. V. Ortiz, A. F. Izmaylov, J. L. Sonnenberg, D. Williams-Young, 
 F. Ding, F. Lipparini, F. Egidi, J. Goings, B. Peng, A. Petrone, 
 T. Henderson, D. Ranasinghe, V. G. Zakrzewski, J. Gao, N. Rega, 
 G. Zheng, W. Liang, M. Hada, M. Ehara, K. Toyota, R. Fukuda, 
 J. Hasegawa, M. Ishida, T. Nakajima, Y. Honda, O. Kitao, H. Nakai, 
 T. Vreven, K. Throssell, J. A. Montgomery, Jr., J. E. Peralta, 
 F. Ogliaro, M. J. Bearpark, J. J. Heyd, E. N. Brothers, K. N. Kudin, 
 V. N. Staroverov, T. A. Keith, R. Kobayashi, J. Normand, 
 K. Raghavachari, A. P. Rendell, J. C. Burant, S. S. Iyengar, 
 J. Tomasi, M. Cossi, J. M. Millam, M. Klene, C. Adamo, R. Cammi, 
 J. W. Ochterski, R. L. Martin, K. Morokuma, O. Farkas, 
 J. B. Foresman, and D. J. Fox, Gaussian, Inc., Wallingford CT, 2019.
 
 ************************************************
 Gaussian 16:  Fujitsu-Arm-G16RevC.01  3-Jul-2019
                   27-Sep-2023 
 ************************************************
 %mem=24GB
 %nproc=42
 Will use up to   42 processors via shared memory.
 -------------------------------------------------------------
 #P TEST b3lyp/6-311G** EmpiricalDispersion=GD3 counterpoise=2
 -------------------------------------------------------------
 1/38=1,62=2,172=1/1;
 2/12=2,17=6,18=5,40=1/2;
 1/38=1,53=2,62=2,63=1/22;
 3/5=4,6=6,7=101,11=2,25=1,30=1,74=-5,124=31/1,2,3;
 4//1;
 5/5=2,38=5/2;
 6/7=2,8=2,9=2,10=2,28=1/1;
 1/53=2,62=2,63=1/22;
 3/5=7,6=11,7=101,11=2,25=1,30=1,74=-5,82=7,124=31/1,2,3;
 4//1;
 5/5=2,38=5/2;
 6/7=2,8=2,9=2,10=2,28=1/1;
 1/53=2,62=2,63=1/22(-4);
 99/5=1,9=1/99;
 Leave Link    1 at Wed Sep 27 16:37:45 2023, MaxMem=  3221225472 cpu:               6.9 elap:               0.2
 (Enter /home/center/opt/aarch64/apps/gaussian16/c01/g16/l101.exe)
 ----------------------------
 pentacene_A1=0_A2=0_A3=45_t1
 ----------------------------
 Symbolic Z-matrix:
 Charge =  0 Multiplicity = 1 in supermolecule
 Charge =  0 Multiplicity = 1 in fragment      1.
 Charge =  0 Multiplicity = 1 in fragment      2.
 C(Fragment=1)        -0.50395   0.52395  -3.66128 
 C(Fragment=1)         0.52395  -0.50395  -3.66128 
 C(Fragment=1)        -0.98612   1.00612  -4.92359 
 C(Fragment=1)         1.00613  -0.98613  -4.92359 
 C(Fragment=1)        -0.49632   0.51632  -6.09636 
 C(Fragment=1)         0.51632  -0.49632  -6.09636 
 C(Fragment=1)        -0.98447   1.00447  -2.45332 
 C(Fragment=1)        -0.50449   0.52449  -1.21403 
 C(Fragment=1)         1.00447  -0.98447  -2.45332 
 C(Fragment=1)         0.52449  -0.50449  -1.21403 
 H(Fragment=1)        -1.75336   1.77336  -4.92326 
 H(Fragment=1)        -1.75219   1.77219  -2.45393 
 H(Fragment=1)         1.77219  -1.75219  -2.45393 
 H(Fragment=1)         1.77336  -1.75336  -4.92326 
 H(Fragment=1)         0.89056  -0.87056  -7.04253 
 H(Fragment=1)        -0.87056   0.89056  -7.04253 
 C(Fragment=1)        -0.98482   1.00482   0.01 
 C(Fragment=1)        -0.50449   0.52449   1.23403 
 C(Fragment=1)         1.00482  -0.98482   0.01 
 C(Fragment=1)         0.52449  -0.50449   1.23403 
 H(Fragment=1)        -1.75247   1.77247   0.01 
 H(Fragment=1)         1.77247  -1.75247   0.01 
 C(Fragment=1)        -0.98447   1.00447   2.47332 
 C(Fragment=1)        -0.50395   0.52395   3.68128 
 C(Fragment=1)         1.00447  -0.98447   2.47332 
 C(Fragment=1)         0.52395  -0.50395   3.68128 
 H(Fragment=1)        -1.75219   1.77219   2.47393 
 H(Fragment=1)         1.77219  -1.75219   2.47393 
 C(Fragment=1)        -0.98612   1.00612   4.94359 
 C(Fragment=1)        -0.49632   0.51632   6.11636 
 C(Fragment=1)         1.00612  -0.98612   4.94359 
 C(Fragment=1)         0.51632  -0.49632   6.11636 
 H(Fragment=1)        -1.75336   1.77336   4.94326 
 H(Fragment=1)        -0.87056   0.89056   7.06253 
 H(Fragment=1)         0.89056  -0.87056   7.06253 
 H(Fragment=1)         1.77336  -1.75336   4.94326 
 C(Fragment=2)         4.02395   4.77395  -3.66128 
 C(Fragment=2)         2.99605   3.74605  -3.66128 
 C(Fragment=2)         4.50612   5.25612  -4.92359 
 C(Fragment=2)         2.51387   3.26387  -4.92359 
 C(Fragment=2)         4.01632   4.76632  -6.09636 
 C(Fragment=2)         3.00368   3.75368  -6.09636 
 C(Fragment=2)         4.50447   5.25447  -2.45332 
 C(Fragment=2)         4.02449   4.77449  -1.21403 
 C(Fragment=2)         2.51553   3.26553  -2.45332 
 C(Fragment=2)         2.99551   3.74551  -1.21403 
 H(Fragment=2)         5.27336   6.02336  -4.92326 
 H(Fragment=2)         5.27219   6.02219  -2.45393 
 H(Fragment=2)         1.74781   2.49781  -2.45393 
 H(Fragment=2)         1.74664   2.49664  -4.92326 
 H(Fragment=2)         2.62944   3.37944  -7.04253 
 H(Fragment=2)         4.39056   5.14056  -7.04253 
 C(Fragment=2)         4.50482   5.25482   0.01 
 C(Fragment=2)         4.02449   4.77449   1.23403 
 C(Fragment=2)         2.51518   3.26518   0.01 
 C(Fragment=2)         2.99551   3.74551   1.23403 
 H(Fragment=2)         5.27247   6.02247   0.01 
 H(Fragment=2)         1.74753   2.49753   0.01 
 C(Fragment=2)         4.50447   5.25447   2.47332 
 C(Fragment=2)         4.02395   4.77395   3.68128 
 C(Fragment=2)         2.51553   3.26553   2.47332 
 C(Fragment=2)         2.99605   3.74605   3.68128 
 H(Fragment=2)         5.27219   6.02219   2.47393 
 H(Fragment=2)         1.74781   2.49781   2.47393 
 C(Fragment=2)         4.50612   5.25612   4.94359 
 C(Fragment=2)         4.01632   4.76632   6.11636 
 C(Fragment=2)         2.51388   3.26388   4.94359 
 C(Fragment=2)         3.00368   3.75368   6.11636 
 H(Fragment=2)         5.27336   6.02336   4.94326 
 H(Fragment=2)         4.39056   5.14056   7.06253 
 H(Fragment=2)         2.62944   3.37944   7.06253 
 H(Fragment=2)         1.74664   2.49664   4.94326 
 
 ITRead=  0  0  0  0  0  0  0  0  0  0  0  0  0  0  0  0  0  0  0  0
 ITRead=  0  0  0  0  0  0  0  0  0  0  0  0  0  0  0  0  0  0  0  0
 ITRead=  0  0  0  0  0  0  0  0  0  0  0  0  0  0  0  0  0  0  0  0
 ITRead=  0  0  0  0  0  0  0  0  0  0  0  0
 MicOpt= -1 -1 -1 -1 -1 -1 -1 -1 -1 -1 -1 -1 -1 -1 -1 -1 -1 -1 -1 -1
 MicOpt= -1 -1 -1 -1 -1 -1 -1 -1 -1 -1 -1 -1 -1 -1 -1 -1 -1 -1 -1 -1
 MicOpt= -1 -1 -1 -1 -1 -1 -1 -1 -1 -1 -1 -1 -1 -1 -1 -1 -1 -1 -1 -1
 MicOpt= -1 -1 -1 -1 -1 -1 -1 -1 -1 -1 -1 -1
 NAtoms=     72 NQM=       72 NQMF=       0 NMMI=      0 NMMIF=      0
                NMic=       0 NMicF=      0.
                    Isotopes and Nuclear Properties:
 (Nuclear quadrupole moments (NQMom) in fm**2, nuclear magnetic moments (NMagM)
  in nuclear magnetons)

  Atom         1           2           3           4           5           6           7           8           9          10
 IAtWgt=          12          12          12          12          12          12          12          12          12          12
 AtmWgt=  12.0000000  12.0000000  12.0000000  12.0000000  12.0000000  12.0000000  12.0000000  12.0000000  12.0000000  12.0000000
 NucSpn=           0           0           0           0           0           0           0           0           0           0
 AtZEff=   0.0000000   0.0000000   0.0000000   0.0000000   0.0000000   0.0000000   0.0000000   0.0000000   0.0000000   0.0000000
 NQMom=    0.0000000   0.0000000   0.0000000   0.0000000   0.0000000   0.0000000   0.0000000   0.0000000   0.0000000   0.0000000
 NMagM=    0.0000000   0.0000000   0.0000000   0.0000000   0.0000000   0.0000000   0.0000000   0.0000000   0.0000000   0.0000000
 AtZNuc=   6.0000000   6.0000000   6.0000000   6.0000000   6.0000000   6.0000000   6.0000000   6.0000000   6.0000000   6.0000000

  Atom        11          12          13          14          15          16          17          18          19          20
 IAtWgt=           1           1           1           1           1           1          12          12          12          12
 AtmWgt=   1.0078250   1.0078250   1.0078250   1.0078250   1.0078250   1.0078250  12.0000000  12.0000000  12.0000000  12.0000000
 NucSpn=           1           1           1           1           1           1           0           0           0           0
 AtZEff=   0.0000000   0.0000000   0.0000000   0.0000000   0.0000000   0.0000000   0.0000000   0.0000000   0.0000000   0.0000000
 NQMom=    0.0000000   0.0000000   0.0000000   0.0000000   0.0000000   0.0000000   0.0000000   0.0000000   0.0000000   0.0000000
 NMagM=    2.7928460   2.7928460   2.7928460   2.7928460   2.7928460   2.7928460   0.0000000   0.0000000   0.0000000   0.0000000
 AtZNuc=   1.0000000   1.0000000   1.0000000   1.0000000   1.0000000   1.0000000   6.0000000   6.0000000   6.0000000   6.0000000

  Atom        21          22          23          24          25          26          27          28          29          30
 IAtWgt=           1           1          12          12          12          12           1           1          12          12
 AtmWgt=   1.0078250   1.0078250  12.0000000  12.0000000  12.0000000  12.0000000   1.0078250   1.0078250  12.0000000  12.0000000
 NucSpn=           1           1           0           0           0           0           1           1           0           0
 AtZEff=   0.0000000   0.0000000   0.0000000   0.0000000   0.0000000   0.0000000   0.0000000   0.0000000   0.0000000   0.0000000
 NQMom=    0.0000000   0.0000000   0.0000000   0.0000000   0.0000000   0.0000000   0.0000000   0.0000000   0.0000000   0.0000000
 NMagM=    2.7928460   2.7928460   0.0000000   0.0000000   0.0000000   0.0000000   2.7928460   2.7928460   0.0000000   0.0000000
 AtZNuc=   1.0000000   1.0000000   6.0000000   6.0000000   6.0000000   6.0000000   1.0000000   1.0000000   6.0000000   6.0000000

  Atom        31          32          33          34          35          36          37          38          39          40
 IAtWgt=          12          12           1           1           1           1          12          12          12          12
 AtmWgt=  12.0000000  12.0000000   1.0078250   1.0078250   1.0078250   1.0078250  12.0000000  12.0000000  12.0000000  12.0000000
 NucSpn=           0           0           1           1           1           1           0           0           0           0
 AtZEff=   0.0000000   0.0000000   0.0000000   0.0000000   0.0000000   0.0000000   0.0000000   0.0000000   0.0000000   0.0000000
 NQMom=    0.0000000   0.0000000   0.0000000   0.0000000   0.0000000   0.0000000   0.0000000   0.0000000   0.0000000   0.0000000
 NMagM=    0.0000000   0.0000000   2.7928460   2.7928460   2.7928460   2.7928460   0.0000000   0.0000000   0.0000000   0.0000000
 AtZNuc=   6.0000000   6.0000000   1.0000000   1.0000000   1.0000000   1.0000000   6.0000000   6.0000000   6.0000000   6.0000000

  Atom        41          42          43          44          45          46          47          48          49          50
 IAtWgt=          12          12          12          12          12          12           1           1           1           1
 AtmWgt=  12.0000000  12.0000000  12.0000000  12.0000000  12.0000000  12.0000000   1.0078250   1.0078250   1.0078250   1.0078250
 NucSpn=           0           0           0           0           0           0           1           1           1           1
 AtZEff=   0.0000000   0.0000000   0.0000000   0.0000000   0.0000000   0.0000000   0.0000000   0.0000000   0.0000000   0.0000000
 NQMom=    0.0000000   0.0000000   0.0000000   0.0000000   0.0000000   0.0000000   0.0000000   0.0000000   0.0000000   0.0000000
 NMagM=    0.0000000   0.0000000   0.0000000   0.0000000   0.0000000   0.0000000   2.7928460   2.7928460   2.7928460   2.7928460
 AtZNuc=   6.0000000   6.0000000   6.0000000   6.0000000   6.0000000   6.0000000   1.0000000   1.0000000   1.0000000   1.0000000

  Atom        51          52          53          54          55          56          57          58          59          60
 IAtWgt=           1           1          12          12          12          12           1           1          12          12
 AtmWgt=   1.0078250   1.0078250  12.0000000  12.0000000  12.0000000  12.0000000   1.0078250   1.0078250  12.0000000  12.0000000
 NucSpn=           1           1           0           0           0           0           1           1           0           0
 AtZEff=   0.0000000   0.0000000   0.0000000   0.0000000   0.0000000   0.0000000   0.0000000   0.0000000   0.0000000   0.0000000
 NQMom=    0.0000000   0.0000000   0.0000000   0.0000000   0.0000000   0.0000000   0.0000000   0.0000000   0.0000000   0.0000000
 NMagM=    2.7928460   2.7928460   0.0000000   0.0000000   0.0000000   0.0000000   2.7928460   2.7928460   0.0000000   0.0000000
 AtZNuc=   1.0000000   1.0000000   6.0000000   6.0000000   6.0000000   6.0000000   1.0000000   1.0000000   6.0000000   6.0000000

  Atom        61          62          63          64          65          66          67          68          69          70
 IAtWgt=          12          12           1           1          12          12          12          12           1           1
 AtmWgt=  12.0000000  12.0000000   1.0078250   1.0078250  12.0000000  12.0000000  12.0000000  12.0000000   1.0078250   1.0078250
 NucSpn=           0           0           1           1           0           0           0           0           1           1
 AtZEff=   0.0000000   0.0000000   0.0000000   0.0000000   0.0000000   0.0000000   0.0000000   0.0000000   0.0000000   0.0000000
 NQMom=    0.0000000   0.0000000   0.0000000   0.0000000   0.0000000   0.0000000   0.0000000   0.0000000   0.0000000   0.0000000
 NMagM=    0.0000000   0.0000000   2.7928460   2.7928460   0.0000000   0.0000000   0.0000000   0.0000000   2.7928460   2.7928460
 AtZNuc=   6.0000000   6.0000000   1.0000000   1.0000000   6.0000000   6.0000000   6.0000000   6.0000000   1.0000000   1.0000000

  Atom        71          72
 IAtWgt=           1           1
 AtmWgt=   1.0078250   1.0078250
 NucSpn=           1           1
 AtZEff=   0.0000000   0.0000000
 NQMom=    0.0000000   0.0000000
 NMagM=    2.7928460   2.7928460
 AtZNuc=   1.0000000   1.0000000
 Leave Link  101 at Wed Sep 27 16:37:47 2023, MaxMem=  3221225472 cpu:               2.5 elap:               0.1
 (Enter /home/center/opt/aarch64/apps/gaussian16/c01/g16/l202.exe)
 Stoichiometry    C44H28
 Framework group  CS[SG(C4H4),X(C40H24)]
 Deg. of freedom   109
 Full point group                 CS      NOp   2
 Largest Abelian subgroup         CS      NOp   2
 Largest concise Abelian subgroup CS      NOp   2
                         Standard orientation:                         
 ---------------------------------------------------------------------
 Center     Atomic      Atomic             Coordinates (Angstroms)
 Number     Number       Type             X           Y           Z
 ---------------------------------------------------------------------
      1          6           0        0.461667   -2.740039    3.671276
      2          6           0       -0.991997   -2.740039    3.671276
      3          6           0        1.143568   -2.740039    4.933593
      4          6           0       -1.673899   -2.740039    4.933593
      5          6           0        0.450882   -2.740039    6.106357
      6          6           0       -0.981212   -2.740039    6.106357
      7          6           0        1.141226   -2.740039    2.463318
      8          6           0        0.462432   -2.740039    1.224029
      9          6           0       -1.671556   -2.740039    2.463317
     10          6           0       -0.992762   -2.740039    1.224029
     11          1           0        2.228597   -2.740039    4.933260
     12          1           0        2.226943   -2.740039    2.463929
     13          1           0       -2.757272   -2.740039    2.463929
     14          1           0       -2.758927   -2.740039    4.933260
     15          1           0       -1.510460   -2.740039    7.052528
     16          1           0        0.980130   -2.740039    7.052528
     17          6           0        1.141721   -2.740039    0.000000
     18          6           0        0.462432   -2.740039   -1.224029
     19          6           0       -1.672051   -2.740039    0.000000
     20          6           0       -0.992762   -2.740039   -1.224029
     21          1           0        2.227344   -2.740039    0.000000
     22          1           0       -2.757672   -2.740039    0.000000
     23          6           0        1.141226   -2.740039   -2.463318
     24          6           0        0.461667   -2.740039   -3.671276
     25          6           0       -1.671556   -2.740039   -2.463317
     26          6           0       -0.991997   -2.740039   -3.671276
     27          1           0        2.226943   -2.740039   -2.463929
     28          1           0       -2.757272   -2.740039   -2.463929
     29          6           0        1.143568   -2.740039   -4.933593
     30          6           0        0.450882   -2.740039   -6.106357
     31          6           0       -1.673899   -2.740039   -4.933593
     32          6           0       -0.981212   -2.740039   -6.106357
     33          1           0        2.228597   -2.740039   -4.933260
     34          1           0        0.980130   -2.740039   -7.052528
     35          1           0       -1.510460   -2.740039   -7.052528
     36          1           0       -2.758927   -2.740039   -4.933260
     37          6           0        0.265165    3.466871    3.671276
     38          6           0        0.265165    2.013207    3.671276
     39          6           0        0.265165    4.148772    4.933593
     40          6           0        0.265165    1.331305    4.933593
     41          6           0        0.265165    3.456085    6.106357
     42          6           0        0.265165    2.023992    6.106357
     43          6           0        0.265165    4.146430    2.463318
     44          6           0        0.265165    3.467635    1.224029
     45          6           0        0.265165    1.333648    2.463317
     46          6           0        0.265165    2.012442    1.224029
     47          1           0        0.265165    5.233801    4.933260
     48          1           0        0.265165    5.232147    2.463929
     49          1           0        0.265165    0.247932    2.463929
     50          1           0        0.265165    0.246277    4.933260
     51          1           0        0.265165    1.494743    7.052528
     52          1           0        0.265165    3.985334    7.052528
     53          6           0        0.265165    4.146925    0.000000
     54          6           0        0.265165    3.467635   -1.224029
     55          6           0        0.265165    1.333153    0.000000
     56          6           0        0.265165    2.012442   -1.224029
     57          1           0        0.265165    5.232548    0.000000
     58          1           0        0.265165    0.247531    0.000000
     59          6           0        0.265165    4.146430   -2.463318
     60          6           0        0.265165    3.466871   -3.671276
     61          6           0        0.265165    1.333648   -2.463317
     62          6           0        0.265165    2.013207   -3.671276
     63          1           0        0.265165    5.232147   -2.463929
     64          1           0        0.265165    0.247932   -2.463929
     65          6           0        0.265165    4.148772   -4.933593
     66          6           0        0.265165    3.456085   -6.106357
     67          6           0        0.265165    1.331305   -4.933593
     68          6           0        0.265165    2.023992   -6.106357
     69          1           0        0.265165    5.233801   -4.933260
     70          1           0        0.265165    3.985334   -7.052528
     71          1           0        0.265165    1.494743   -7.052528
     72          1           0        0.265165    0.246277   -4.933260
 ---------------------------------------------------------------------
 Rotational constants (GHZ):           0.1015016           0.0563744           0.0383450
 Leave Link  202 at Wed Sep 27 16:37:49 2023, MaxMem=  3221225472 cpu:               0.6 elap:               0.0
 (Enter /home/center/opt/aarch64/apps/gaussian16/c01/g16/l122.exe)
 Counterpoise: doing full-system calculation.
 Leave Link  122 at Wed Sep 27 16:37:52 2023, MaxMem=  3221225472 cpu:               0.2 elap:               0.0
 (Enter /home/center/opt/aarch64/apps/gaussian16/c01/g16/l301.exe)
 Standard basis: 6-311G(d,p) (5D, 7F)
 Ernie: Thresh=  0.10000D-02 Tol=  0.10000D-05 Strict=F.
 There are   528 symmetry adapted cartesian basis functions of A'  symmetry.
 There are   476 symmetry adapted cartesian basis functions of A"  symmetry.
 There are   504 symmetry adapted basis functions of A'  symmetry.
 There are   456 symmetry adapted basis functions of A"  symmetry.
   960 basis functions,  1632 primitive gaussians,  1004 cartesian basis functions
   146 alpha electrons      146 beta electrons
       nuclear repulsion energy      4587.8837120817 Hartrees.
 IExCor=  402 DFT=T Ex+Corr=B3LYP ExCW=0 ScaHFX=  0.200000
 ScaDFX=  0.800000  0.720000  1.000000  0.810000 ScalE2=  1.000000  1.000000
 IRadAn=      5 IRanWt=     -1 IRanGd=            0 ICorTp=0 IEmpDi=131
 NAtoms=   72 NActive=   72 NUniq=   40 SFac= 3.24D+00 NAtFMM=   60 NAOKFM=T Big=F
 Integral buffers will be    131072 words long.
 Raffenetti 2 integral format.
 Two-electron integral symmetry is turned on.
 R6Disp:  Grimme-D3 Dispersion energy=       -0.0773036245 Hartrees.
 Nuclear repulsion after empirical dispersion term =     4587.8064084572 Hartrees.
 Leave Link  301 at Wed Sep 27 16:37:54 2023, MaxMem=  3221225472 cpu:               2.0 elap:               0.1
 (Enter /home/center/opt/aarch64/apps/gaussian16/c01/g16/l302.exe)
 NPDir=0 NMtPBC=     1 NCelOv=     1 NCel=       1 NClECP=     1 NCelD=      1
         NCelK=      1 NCelE2=     1 NClLst=     1 CellRange=     0.0.
 One-electron integrals computed using PRISM.
 One-electron integral symmetry used in STVInt
 NBasis=   960 RedAO= T EigKep=  3.84D-05  NBF=   504   456
 NBsUse=   960 1.00D-06 EigRej= -1.00D+00 NBFU=   504   456
 Precomputing XC quadrature grid using
 IXCGrd= 4 IRadAn=           5 IRanWt=          -1 IRanGd=           0 AccXCQ= 0.00D+00.
 Generated NRdTot=       0 NPtTot=           0 NUsed=           0 NTot=          32
 NSgBfM=   991   991   991   991   991 MxSgAt=    72 MxSgA2=    72.
 Leave Link  302 at Wed Sep 27 16:37:58 2023, MaxMem=  3221225472 cpu:              64.0 elap:               2.0
 (Enter /home/center/opt/aarch64/apps/gaussian16/c01/g16/l303.exe)
 DipDrv:  MaxL=1.
 Leave Link  303 at Wed Sep 27 16:38:01 2023, MaxMem=  3221225472 cpu:              15.5 elap:               0.5
 (Enter /home/center/opt/aarch64/apps/gaussian16/c01/g16/l401.exe)
 ExpMin= 1.03D-01 ExpMax= 4.56D+03 ExpMxC= 6.82D+02 IAcc=3 IRadAn=         5 AccDes= 0.00D+00
 Harris functional with IExCor=  402 and IRadAn=       5 diagonalized for initial guess.
 HarFok:  IExCor=  402 AccDes= 0.00D+00 IRadAn=         5 IDoV= 1 UseB2=F ITyADJ=14
 ICtDFT=  3500011 ScaDFX=  1.000000  1.000000  1.000000  1.000000
 FoFCou: FMM=F IPFlag=           0 FMFlag=      100000 FMFlg1=        2000
         NFxFlg=           0 DoJE=T BraDBF=F KetDBF=T FulRan=T
         wScrn=  0.000000 ICntrl=       500 IOpCl=  0 I1Cent=   200000004 NGrid=           0
         NMat0=    1 NMatS0=      1 NMatT0=    0 NMatD0=    1 NMtDS0=    0 NMtDT0=    0
 Petite list used in FoFCou.
 Harris En= -1694.13889399536    
 JPrj=0 DoOrth=F DoCkMO=F.
 Initial guess orbital symmetries:
       Occupied  (A") (A') (A") (A') (A') (A") (A') (A") (A") (A')
                 (A") (A') (A") (A') (A") (A') (A") (A') (A") (A')
                 (A') (A") (A") (A') (A') (A') (A') (A') (A") (A')
                 (A") (A') (A") (A') (A") (A') (A") (A') (A") (A')
                 (A') (A") (A') (A") (A') (A') (A") (A") (A') (A')
                 (A") (A") (A') (A') (A') (A') (A") (A") (A') (A')
                 (A") (A") (A") (A") (A') (A') (A') (A') (A") (A")
                 (A") (A") (A') (A') (A") (A") (A') (A') (A') (A')
                 (A') (A') (A") (A") (A") (A") (A") (A") (A') (A')
                 (A') (A') (A") (A") (A') (A') (A') (A') (A") (A")
                 (A') (A') (A") (A") (A") (A") (A') (A') (A') (A')
                 (A") (A") (A') (A') (A") (A") (A') (A') (A") (A")
                 (A") (A") (A') (A') (A') (A') (A") (A") (A') (A')
                 (A") (A") (A') (A') (A") (A") (A') (A') (A') (A')
                 (A") (A") (A") (A") (A') (A')
       Virtual   (A') (A') (A") (A") (A") (A") (A') (A') (A') (A')
                 (A") (A") (A') (A') (A") (A") (A') (A") (A') (A')
                 (A') (A') (A") (A') (A') (A") (A") (A') (A") (A")
                 (A') (A') (A") (A') (A") (A') (A") (A") (A") (A')
                 (A") (A') (A') (A') (A") (A') (A") (A') (A') (A')
                 (A') (A') (A") (A") (A') (A') (A") (A") (A') (A')
                 (A") (A") (A") (A") (A') (A') (A") (A') (A") (A")
                 (A') (A") (A') (A') (A") (A') (A") (A") (A') (A")
                 (A') (A') (A') (A') (A") (A') (A') (A") (A") (A')
                 (A') (A") (A") (A") (A') (A') (A") (A") (A") (A')
                 (A') (A") (A') (A") (A') (A") (A") (A') (A') (A')
                 (A') (A') (A") (A') (A') (A") (A") (A') (A') (A")
                 (A') (A") (A") (A') (A") (A') (A') (A") (A") (A')
                 (A") (A') (A") (A") (A") (A') (A") (A') (A') (A")
                 (A') (A") (A') (A') (A") (A') (A') (A") (A') (A')
                 (A') (A") (A') (A") (A") (A') (A") (A') (A') (A')
                 (A") (A") (A") (A') (A") (A') (A") (A') (A") (A')
                 (A') (A") (A") (A') (A') (A") (A') (A") (A') (A")
                 (A') (A") (A") (A') (A') (A") (A') (A') (A') (A')
                 (A") (A") (A') (A") (A') (A") (A') (A') (A") (A")
                 (A") (A') (A') (A") (A') (A") (A') (A') (A") (A')
                 (A") (A') (A") (A') (A") (A") (A') (A") (A') (A")
                 (A') (A") (A") (A") (A') (A') (A") (A') (A') (A")
                 (A') (A') (A') (A') (A") (A") (A') (A") (A") (A')
                 (A") (A") (A') (A') (A') (A') (A") (A") (A') (A")
                 (A') (A") (A") (A") (A') (A') (A') (A") (A') (A")
                 (A') (A') (A") (A") (A') (A") (A") (A') (A") (A")
                 (A') (A') (A") (A") (A') (A') (A") (A') (A") (A')
                 (A") (A') (A") (A') (A') (A') (A") (A') (A") (A")
                 (A') (A') (A") (A') (A") (A") (A') (A") (A") (A")
                 (A') (A") (A') (A') (A') (A') (A') (A") (A') (A")
                 (A") (A") (A') (A") (A") (A") (A') (A') (A') (A')
                 (A") (A') (A") (A') (A') (A") (A') (A") (A') (A")
                 (A") (A") (A') (A') (A") (A') (A") (A") (A') (A')
                 (A') (A") (A") (A') (A") (A') (A") (A') (A") (A')
                 (A') (A') (A") (A') (A") (A') (A') (A") (A') (A")
                 (A') (A') (A') (A') (A") (A") (A") (A") (A") (A")
                 (A") (A') (A") (A') (A") (A") (A') (A') (A') (A')
                 (A") (A") (A') (A') (A') (A') (A') (A") (A') (A")
                 (A") (A') (A') (A') (A") (A') (A") (A") (A") (A')
                 (A") (A') (A") (A') (A") (A') (A') (A") (A") (A')
                 (A') (A") (A') (A') (A') (A") (A") (A') (A") (A')
                 (A') (A') (A') (A") (A") (A') (A") (A') (A") (A')
                 (A") (A") (A") (A') (A") (A') (A") (A') (A") (A")
                 (A") (A') (A") (A') (A') (A') (A") (A') (A") (A")
                 (A') (A') (A') (A') (A") (A") (A') (A") (A') (A")
                 (A") (A") (A') (A') (A') (A") (A') (A") (A") (A")
                 (A") (A') (A') (A') (A") (A') (A") (A') (A") (A')
                 (A") (A') (A') (A') (A") (A') (A") (A") (A") (A')
                 (A") (A') (A") (A") (A") (A") (A") (A') (A') (A")
                 (A') (A") (A') (A') (A") (A') (A') (A') (A") (A')
                 (A") (A') (A') (A') (A") (A") (A") (A') (A") (A')
                 (A") (A') (A") (A') (A") (A") (A') (A') (A") (A')
                 (A') (A") (A') (A') (A") (A") (A') (A") (A") (A')
                 (A") (A") (A') (A') (A') (A") (A') (A") (A") (A")
                 (A") (A') (A') (A") (A') (A") (A') (A") (A') (A')
                 (A") (A') (A') (A") (A") (A') (A') (A") (A') (A")
                 (A") (A') (A") (A") (A') (A') (A") (A') (A') (A")
                 (A') (A") (A') (A') (A") (A') (A') (A') (A") (A')
                 (A") (A') (A") (A') (A') (A") (A") (A') (A") (A')
                 (A') (A") (A") (A') (A") (A') (A") (A') (A") (A')
                 (A") (A') (A') (A") (A') (A") (A') (A") (A') (A")
                 (A') (A") (A") (A') (A") (A') (A") (A') (A") (A')
                 (A") (A') (A') (A') (A') (A") (A') (A") (A') (A")
                 (A') (A") (A') (A") (A") (A") (A') (A") (A") (A')
                 (A') (A') (A") (A') (A') (A') (A') (A") (A") (A')
                 (A') (A") (A') (A") (A") (A") (A') (A') (A') (A")
                 (A') (A") (A") (A') (A') (A") (A") (A") (A') (A')
                 (A") (A') (A') (A") (A') (A") (A') (A") (A") (A")
                 (A') (A') (A") (A') (A') (A') (A") (A") (A") (A')
                 (A') (A") (A') (A") (A') (A") (A') (A") (A') (A")
                 (A") (A") (A') (A") (A') (A') (A') (A') (A") (A")
                 (A') (A') (A") (A") (A') (A') (A") (A') (A') (A")
                 (A') (A") (A") (A') (A") (A') (A") (A') (A') (A")
                 (A') (A") (A') (A') (A") (A") (A') (A') (A') (A')
                 (A") (A') (A") (A') (A") (A") (A') (A') (A") (A")
                 (A") (A") (A') (A') (A") (A") (A') (A") (A') (A")
                 (A') (A') (A") (A") (A') (A') (A') (A') (A") (A")
                 (A") (A") (A') (A') (A") (A") (A') (A') (A') (A')
                 (A") (A") (A") (A") (A') (A') (A') (A') (A") (A")
                 (A') (A') (A") (A") (A') (A') (A") (A") (A') (A')
                 (A') (A") (A') (A")
 The electronic state of the initial guess is 1-A'.
 Leave Link  401 at Wed Sep 27 16:38:06 2023, MaxMem=  3221225472 cpu:             105.2 elap:               2.8
 (Enter /home/center/opt/aarch64/apps/gaussian16/c01/g16/l502.exe)
 Integral symmetry usage will be decided dynamically.
 Closed shell SCF:
 Using DIIS extrapolation, IDIIS=  1040.
 NGot=  3221225472 LenX=  3219153746 LenY=  3218144726
 Requested convergence on RMS density matrix=1.00D-08 within 128 cycles.
 Requested convergence on MAX density matrix=1.00D-06.
 Requested convergence on             energy=1.00D-06.
 No special actions if energy rises.
 Fock matrices will be formed incrementally for  20 cycles.
 Integral accuracy reduced to 1.0D-05 until final iterations.

 Cycle   1  Pass 0  IDiag  1:
 FoFJK:  IHMeth= 1 ICntrl=       0 DoSepK=F KAlg= 0 I1Cent=           0 FoldK=F
 IRaf= 550000000 NMat=       1 IRICut=       1 DoRegI=T DoRafI=F ISym2E= 1 IDoP0=0 IntGTp=1.
 FoFCou: FMM=F IPFlag=           0 FMFlag=      100000 FMFlg1=        2000
         NFxFlg=           0 DoJE=F BraDBF=F KetDBF=F FulRan=T
         wScrn=  0.000000 ICntrl=         0 IOpCl=  0 I1Cent=           0 NGrid=           0
         NMat0=    1 NMatS0=      1 NMatT0=    0 NMatD0=    1 NMtDS0=    0 NMtDT0=    0
 Petite list used in FoFCou.
 E= -1693.16876782609    
 DIIS: error= 4.64D-02 at cycle   1 NSaved=   1.
 NSaved= 1 IEnMin= 1 EnMin= -1693.16876782609     IErMin= 1 ErrMin= 4.64D-02
 ErrMax= 4.64D-02  0.00D+00 EMaxC= 1.00D-01 BMatC= 9.01D-01 BMatP= 9.01D-01
 IDIUse=3 WtCom= 5.36D-01 WtEn= 4.64D-01
 Coeff-Com:  0.100D+01
 Coeff-En:   0.100D+01
 Coeff:      0.100D+01
 Gap=     0.067 Goal=   None    Shift=    0.000
 GapD=    0.067 DampG=0.500 DampE=0.500 DampFc=0.2500 IDamp=-1.
 Damping current iteration by 2.50D-01
 RMSDP=1.72D-03 MaxDP=8.40D-02              OVMax= 1.56D-01

 Cycle   2  Pass 0  IDiag  1:
 RMSU=  4.16D-04    CP:  9.82D-01
 E= -1693.47893811602     Delta-E=       -0.310170289928 Rises=F Damp=T
 DIIS: error= 2.69D-02 at cycle   2 NSaved=   2.
 NSaved= 2 IEnMin= 2 EnMin= -1693.47893811602     IErMin= 2 ErrMin= 2.69D-02
 ErrMax= 2.69D-02  0.00D+00 EMaxC= 1.00D-01 BMatC= 2.99D-01 BMatP= 9.01D-01
 IDIUse=3 WtCom= 7.31D-01 WtEn= 2.69D-01
 Coeff-Com: -0.121D+01 0.221D+01
 Coeff-En:   0.000D+00 0.100D+01
 Coeff:     -0.884D+00 0.188D+01
 Gap=     0.065 Goal=   None    Shift=    0.000
 RMSDP=7.04D-04 MaxDP=3.35D-02 DE=-3.10D-01 OVMax= 8.95D-02

 Cycle   3  Pass 0  IDiag  1:
 RMSU=  4.39D-04    CP:  9.57D-01  2.27D+00
 E= -1694.04660530592     Delta-E=       -0.567667189898 Rises=F Damp=F
 DIIS: error= 4.65D-03 at cycle   3 NSaved=   3.
 NSaved= 3 IEnMin= 3 EnMin= -1694.04660530592     IErMin= 3 ErrMin= 4.65D-03
 ErrMax= 4.65D-03  0.00D+00 EMaxC= 1.00D-01 BMatC= 1.13D-02 BMatP= 2.99D-01
 IDIUse=3 WtCom= 9.53D-01 WtEn= 4.65D-02
 Coeff-Com: -0.230D+00 0.484D+00 0.745D+00
 Coeff-En:   0.000D+00 0.000D+00 0.100D+01
 Coeff:     -0.219D+00 0.462D+00 0.757D+00
 Gap=     0.069 Goal=   None    Shift=    0.000
 RMSDP=2.31D-04 MaxDP=1.36D-02 DE=-5.68D-01 OVMax= 9.97D-02

 Cycle   4  Pass 0  IDiag  1:
 RMSU=  1.99D-04    CP:  9.58D-01  2.15D+00  7.57D-01
 E= -1694.04218303599     Delta-E=        0.004422269929 Rises=F Damp=F
 DIIS: error= 7.00D-03 at cycle   4 NSaved=   4.
 NSaved= 4 IEnMin= 3 EnMin= -1694.04660530592     IErMin= 3 ErrMin= 4.65D-03
 ErrMax= 7.00D-03  0.00D+00 EMaxC= 1.00D-01 BMatC= 1.34D-02 BMatP= 1.13D-02
 IDIUse=3 WtCom= 1.07D-01 WtEn= 8.93D-01
 Coeff-Com: -0.285D-01 0.944D-01 0.532D+00 0.402D+00
 Coeff-En:   0.000D+00 0.000D+00 0.566D+00 0.434D+00
 Coeff:     -0.304D-02 0.101D-01 0.563D+00 0.430D+00
 Gap=     0.066 Goal=   None    Shift=    0.000
 RMSDP=1.44D-04 MaxDP=9.73D-03 DE= 4.42D-03 OVMax= 8.54D-02

 Cycle   5  Pass 0  IDiag  1:
 RMSU=  7.71D-05    CP:  9.58D-01  2.14D+00  8.27D-01  4.08D-01
 E= -1694.05721030495     Delta-E=       -0.015027268959 Rises=F Damp=F
 DIIS: error= 2.21D-03 at cycle   5 NSaved=   5.
 NSaved= 5 IEnMin= 5 EnMin= -1694.05721030495     IErMin= 5 ErrMin= 2.21D-03
 ErrMax= 2.21D-03  0.00D+00 EMaxC= 1.00D-01 BMatC= 1.11D-03 BMatP= 1.13D-02
 IDIUse=3 WtCom= 9.78D-01 WtEn= 2.21D-02
 Coeff-Com: -0.164D-01 0.346D-01 0.243D+00 0.246D+00 0.492D+00
 Coeff-En:   0.000D+00 0.000D+00 0.000D+00 0.430D-01 0.957D+00
 Coeff:     -0.160D-01 0.338D-01 0.238D+00 0.242D+00 0.503D+00
 Gap=     0.067 Goal=   None    Shift=    0.000
 RMSDP=4.76D-05 MaxDP=3.32D-03 DE=-1.50D-02 OVMax= 3.19D-02

 Cycle   6  Pass 0  IDiag  1:
 RMSU=  2.53D-05    CP:  9.58D-01  2.17D+00  8.31D-01  5.06D-01  5.67D-01
 E= -1694.05821040931     Delta-E=       -0.001000104361 Rises=F Damp=F
 DIIS: error= 1.13D-03 at cycle   6 NSaved=   6.
 NSaved= 6 IEnMin= 6 EnMin= -1694.05821040931     IErMin= 6 ErrMin= 1.13D-03
 ErrMax= 1.13D-03  0.00D+00 EMaxC= 1.00D-01 BMatC= 2.57D-04 BMatP= 1.11D-03
 IDIUse=3 WtCom= 9.89D-01 WtEn= 1.13D-02
 Coeff-Com: -0.752D-02 0.111D-01 0.101D+00 0.121D+00 0.368D+00 0.406D+00
 Coeff-En:   0.000D+00 0.000D+00 0.000D+00 0.000D+00 0.198D+00 0.802D+00
 Coeff:     -0.743D-02 0.109D-01 0.100D+00 0.120D+00 0.366D+00 0.411D+00
 Gap=     0.066 Goal=   None    Shift=    0.000
 RMSDP=2.09D-05 MaxDP=1.58D-03 DE=-1.00D-03 OVMax= 1.32D-02

 Cycle   7  Pass 0  IDiag  1:
 RMSU=  8.14D-06    CP:  9.58D-01  2.17D+00  8.35D-01  4.90D-01  6.46D-01
                    CP:  2.99D-01
 E= -1694.05849990157     Delta-E=       -0.000289492257 Rises=F Damp=F
 DIIS: error= 3.16D-04 at cycle   7 NSaved=   7.
 NSaved= 7 IEnMin= 7 EnMin= -1694.05849990157     IErMin= 7 ErrMin= 3.16D-04
 ErrMax= 3.16D-04  0.00D+00 EMaxC= 1.00D-01 BMatC= 2.04D-05 BMatP= 2.57D-04
 IDIUse=3 WtCom= 9.97D-01 WtEn= 3.16D-03
 Coeff-Com: -0.317D-02 0.393D-02 0.531D-01 0.651D-01 0.215D+00 0.284D+00
 Coeff-Com:  0.382D+00
 Coeff-En:   0.000D+00 0.000D+00 0.000D+00 0.000D+00 0.000D+00 0.418D-01
 Coeff-En:   0.958D+00
 Coeff:     -0.316D-02 0.392D-02 0.529D-01 0.649D-01 0.214D+00 0.283D+00
 Coeff:      0.384D+00
 Gap=     0.066 Goal=   None    Shift=    0.000
 RMSDP=5.47D-06 MaxDP=3.26D-04 DE=-2.89D-04 OVMax= 2.53D-03

 Initial convergence to 1.0D-05 achieved.  Increase integral accuracy.
 Cycle   8  Pass 1  IDiag  1:
 E= -1694.05811474533     Delta-E=        0.000385156239 Rises=F Damp=F
 DIIS: error= 9.75D-04 at cycle   1 NSaved=   1.
 NSaved= 1 IEnMin= 1 EnMin= -1694.05811474533     IErMin= 1 ErrMin= 9.75D-04
 ErrMax= 9.75D-04  0.00D+00 EMaxC= 1.00D-01 BMatC= 5.33D-05 BMatP= 5.33D-05
 IDIUse=3 WtCom= 9.90D-01 WtEn= 9.75D-03
 Coeff-Com:  0.100D+01
 Coeff-En:   0.100D+01
 Coeff:      0.100D+01
 Gap=     0.066 Goal=   None    Shift=    0.000
 RMSDP=5.47D-06 MaxDP=3.26D-04 DE= 3.85D-04 OVMax= 1.77D-03

 Cycle   9  Pass 1  IDiag  1:
 RMSU=  3.39D-04    CP:  9.98D-01
 E= -1694.05816577269     Delta-E=       -0.000051027359 Rises=F Damp=F
 DIIS: error= 8.98D-05 at cycle   2 NSaved=   2.
 NSaved= 2 IEnMin= 2 EnMin= -1694.05816577269     IErMin= 2 ErrMin= 8.98D-05
 ErrMax= 8.98D-05  0.00D+00 EMaxC= 1.00D-01 BMatC= 2.27D-06 BMatP= 5.33D-05
 IDIUse=1 WtCom= 1.00D+00 WtEn= 0.00D+00
 Coeff-Com:  0.509D-01 0.949D+00
 Coeff:      0.509D-01 0.949D+00
 Gap=     0.066 Goal=   None    Shift=    0.000
 RMSDP=6.21D-06 MaxDP=3.72D-04 DE=-5.10D-05 OVMax= 2.94D-03

 Cycle  10  Pass 1  IDiag  1:
 RMSU=  5.16D-06    CP:  9.98D-01  1.01D+00
 E= -1694.05815462384     Delta-E=        0.000011148843 Rises=F Damp=F
 DIIS: error= 2.49D-04 at cycle   3 NSaved=   3.
 NSaved= 3 IEnMin= 2 EnMin= -1694.05816577269     IErMin= 2 ErrMin= 8.98D-05
 ErrMax= 2.49D-04  0.00D+00 EMaxC= 1.00D-01 BMatC= 1.13D-05 BMatP= 2.27D-06
 IDIUse=3 WtCom= 3.88D-01 WtEn= 6.12D-01
 Coeff-Com: -0.291D-02 0.695D+00 0.308D+00
 Coeff-En:   0.000D+00 0.780D+00 0.220D+00
 Coeff:     -0.113D-02 0.747D+00 0.254D+00
 Gap=     0.066 Goal=   None    Shift=    0.000
 RMSDP=3.22D-06 MaxDP=2.35D-04 DE= 1.11D-05 OVMax= 2.06D-03

 Cycle  11  Pass 1  IDiag  1:
 RMSU=  9.71D-07    CP:  9.98D-01  1.01D+00  4.06D-01
 E= -1694.05816794161     Delta-E=       -0.000013317765 Rises=F Damp=F
 DIIS: error= 3.49D-05 at cycle   4 NSaved=   4.
 NSaved= 4 IEnMin= 4 EnMin= -1694.05816794161     IErMin= 4 ErrMin= 3.49D-05
 ErrMax= 3.49D-05  0.00D+00 EMaxC= 1.00D-01 BMatC= 3.96D-07 BMatP= 2.27D-06
 IDIUse=1 WtCom= 1.00D+00 WtEn= 0.00D+00
 Coeff-Com: -0.384D-02 0.452D+00 0.141D+00 0.411D+00
 Coeff:     -0.384D-02 0.452D+00 0.141D+00 0.411D+00
 Gap=     0.066 Goal=   None    Shift=    0.000
 RMSDP=6.14D-07 MaxDP=3.10D-05 DE=-1.33D-05 OVMax= 1.54D-04

 Cycle  12  Pass 1  IDiag  1:
 RMSU=  3.83D-07    CP:  9.98D-01  1.01D+00  3.24D-01  7.73D-01
 E= -1694.05816834004     Delta-E=       -0.000000398429 Rises=F Damp=F
 DIIS: error= 5.38D-06 at cycle   5 NSaved=   5.
 NSaved= 5 IEnMin= 5 EnMin= -1694.05816834004     IErMin= 5 ErrMin= 5.38D-06
 ErrMax= 5.38D-06  0.00D+00 EMaxC= 1.00D-01 BMatC= 3.78D-09 BMatP= 3.96D-07
 IDIUse=1 WtCom= 1.00D+00 WtEn= 0.00D+00
 Coeff-Com: -0.220D-02 0.251D+00 0.775D-01 0.241D+00 0.432D+00
 Coeff:     -0.220D-02 0.251D+00 0.775D-01 0.241D+00 0.432D+00
 Gap=     0.066 Goal=   None    Shift=    0.000
 RMSDP=9.59D-08 MaxDP=3.70D-06 DE=-3.98D-07 OVMax= 3.30D-05

 Cycle  13  Pass 1  IDiag  1:
 RMSU=  8.90D-08    CP:  9.98D-01  1.01D+00  3.26D-01  7.82D-01  9.22D-01
 E= -1694.05816834432     Delta-E=       -0.000000004280 Rises=F Damp=F
 DIIS: error= 2.05D-06 at cycle   6 NSaved=   6.
 NSaved= 6 IEnMin= 6 EnMin= -1694.05816834432     IErMin= 6 ErrMin= 2.05D-06
 ErrMax= 2.05D-06  0.00D+00 EMaxC= 1.00D-01 BMatC= 6.73D-10 BMatP= 3.78D-09
 IDIUse=1 WtCom= 1.00D+00 WtEn= 0.00D+00
 Coeff-Com: -0.831D-03 0.924D-01 0.286D-01 0.921D-01 0.293D+00 0.495D+00
 Coeff:     -0.831D-03 0.924D-01 0.286D-01 0.921D-01 0.293D+00 0.495D+00
 Gap=     0.066 Goal=   None    Shift=    0.000
 RMSDP=2.81D-08 MaxDP=1.37D-06 DE=-4.28D-09 OVMax= 1.08D-05

 Cycle  14  Pass 1  IDiag  1:
 RMSU=  1.84D-08    CP:  9.98D-01  1.01D+00  3.28D-01  7.76D-01  9.50D-01
                    CP:  8.24D-01
 E= -1694.05816834508     Delta-E=       -0.000000000760 Rises=F Damp=F
 DIIS: error= 2.93D-07 at cycle   7 NSaved=   7.
 NSaved= 7 IEnMin= 7 EnMin= -1694.05816834508     IErMin= 7 ErrMin= 2.93D-07
 ErrMax= 2.93D-07  0.00D+00 EMaxC= 1.00D-01 BMatC= 1.84D-11 BMatP= 6.73D-10
 IDIUse=1 WtCom= 1.00D+00 WtEn= 0.00D+00
 Coeff-Com: -0.161D-03 0.172D-01 0.498D-02 0.190D-01 0.858D-01 0.197D+00
 Coeff-Com:  0.676D+00
 Coeff:     -0.161D-03 0.172D-01 0.498D-02 0.190D-01 0.858D-01 0.197D+00
 Coeff:      0.676D+00
 Gap=     0.066 Goal=   None    Shift=    0.000
 RMSDP=8.69D-09 MaxDP=6.47D-07 DE=-7.60D-10 OVMax= 5.56D-06

 SCF Done:  E(RB3LYP) =  -1694.05816835     A.U. after   14 cycles
            NFock= 14  Conv=0.87D-08     -V/T= 2.0044
 KE= 1.686675943279D+03 PE=-1.310607612735D+04 EE= 5.137535607268D+03
 Leave Link  502 at Wed Sep 27 16:39:46 2023, MaxMem=  3221225472 cpu:            3426.2 elap:              96.9
 (Enter /home/center/opt/aarch64/apps/gaussian16/c01/g16/l601.exe)
 Copying SCF densities to generalized density rwf, IOpCl= 0 IROHF=0.

 **********************************************************************

            Population analysis using the SCF Density.

 **********************************************************************

 Orbital symmetries:
       Occupied  (A") (A') (A') (A") (A") (A') (A") (A') (A') (A')
                 (A') (A") (A") (A') (A") (A') (A") (A') (A") (A')
                 (A") (A') (A") (A') (A") (A') (A') (A") (A") (A')
                 (A") (A') (A') (A") (A') (A") (A') (A') (A") (A')
                 (A") (A') (A") (A') (A') (A') (A") (A") (A') (A')
                 (A") (A") (A') (A') (A') (A") (A') (A") (A') (A')
                 (A") (A") (A") (A") (A') (A') (A') (A') (A") (A")
                 (A") (A') (A") (A") (A') (A') (A") (A') (A') (A')
                 (A') (A") (A") (A') (A") (A") (A') (A") (A') (A")
                 (A') (A') (A') (A") (A") (A') (A") (A") (A') (A')
                 (A') (A") (A') (A') (A') (A') (A") (A") (A") (A')
                 (A') (A') (A") (A") (A") (A") (A") (A") (A') (A')
                 (A') (A') (A') (A") (A') (A") (A') (A") (A") (A")
                 (A') (A") (A') (A') (A") (A') (A") (A') (A') (A')
                 (A") (A") (A") (A") (A') (A')
       Virtual   (A') (A') (A") (A") (A") (A") (A') (A') (A') (A")
                 (A') (A') (A") (A') (A") (A') (A') (A') (A") (A")
                 (A') (A') (A") (A") (A") (A') (A') (A') (A") (A")
                 (A") (A') (A") (A') (A') (A") (A") (A') (A") (A')
                 (A') (A') (A") (A') (A") (A') (A") (A') (A") (A')
                 (A") (A') (A') (A') (A') (A') (A') (A") (A") (A')
                 (A") (A") (A") (A") (A') (A') (A") (A") (A") (A')
                 (A') (A') (A") (A") (A') (A') (A") (A') (A") (A')
                 (A") (A') (A') (A') (A') (A') (A") (A") (A') (A")
                 (A") (A") (A') (A') (A') (A') (A") (A") (A') (A")
                 (A') (A") (A") (A') (A") (A') (A") (A') (A") (A")
                 (A') (A') (A") (A") (A') (A') (A") (A') (A') (A')
                 (A") (A') (A") (A') (A') (A') (A") (A') (A') (A")
                 (A') (A") (A") (A') (A") (A') (A") (A') (A') (A")
                 (A') (A") (A') (A') (A") (A') (A") (A") (A') (A")
                 (A') (A") (A") (A') (A") (A') (A') (A") (A') (A")
                 (A") (A') (A') (A') (A") (A") (A") (A') (A') (A")
                 (A") (A') (A') (A") (A') (A') (A') (A') (A") (A")
                 (A") (A') (A") (A') (A") (A') (A') (A") (A") (A')
                 (A") (A') (A") (A") (A') (A') (A") (A') (A') (A")
                 (A') (A") (A') (A") (A') (A') (A") (A') (A") (A')
                 (A') (A") (A") (A') (A") (A') (A") (A') (A") (A')
                 (A") (A") (A") (A') (A") (A') (A') (A') (A") (A')
                 (A') (A") (A') (A") (A') (A") (A') (A") (A") (A')
                 (A') (A") (A') (A") (A') (A') (A") (A") (A") (A')
                 (A") (A') (A') (A") (A') (A") (A') (A") (A") (A')
                 (A') (A") (A') (A") (A') (A") (A') (A') (A") (A")
                 (A') (A") (A") (A') (A") (A') (A') (A") (A") (A')
                 (A") (A') (A') (A') (A") (A") (A') (A") (A') (A")
                 (A') (A') (A") (A') (A") (A") (A') (A') (A") (A')
                 (A") (A") (A") (A') (A") (A") (A') (A') (A') (A')
                 (A") (A') (A') (A") (A') (A") (A") (A') (A") (A")
                 (A') (A") (A') (A') (A') (A") (A') (A") (A") (A')
                 (A") (A") (A') (A") (A') (A') (A") (A") (A') (A')
                 (A") (A') (A') (A') (A") (A") (A') (A') (A") (A')
                 (A") (A") (A') (A") (A') (A') (A') (A') (A') (A")
                 (A') (A") (A') (A") (A') (A") (A") (A") (A") (A')
                 (A") (A") (A') (A") (A') (A") (A") (A') (A") (A')
                 (A') (A") (A') (A') (A") (A') (A') (A') (A") (A')
                 (A') (A') (A") (A") (A') (A") (A') (A") (A") (A')
                 (A') (A") (A") (A') (A") (A') (A') (A") (A') (A")
                 (A') (A') (A") (A") (A') (A') (A") (A') (A') (A")
                 (A') (A") (A') (A') (A") (A') (A") (A') (A") (A')
                 (A") (A") (A") (A') (A') (A") (A") (A') (A") (A")
                 (A') (A') (A') (A") (A") (A") (A') (A") (A') (A')
                 (A") (A') (A") (A') (A") (A') (A") (A') (A") (A')
                 (A") (A") (A') (A') (A") (A') (A") (A') (A') (A')
                 (A") (A") (A') (A") (A') (A") (A") (A") (A') (A')
                 (A") (A') (A') (A") (A') (A') (A") (A") (A') (A")
                 (A") (A") (A') (A") (A") (A") (A") (A') (A") (A')
                 (A') (A") (A') (A') (A") (A') (A') (A') (A") (A")
                 (A') (A') (A') (A") (A') (A") (A') (A") (A') (A")
                 (A") (A") (A") (A') (A') (A') (A") (A') (A") (A")
                 (A') (A") (A') (A') (A") (A") (A') (A") (A') (A')
                 (A") (A") (A') (A') (A') (A") (A") (A") (A') (A")
                 (A") (A') (A") (A') (A") (A') (A') (A") (A') (A')
                 (A") (A') (A") (A') (A") (A') (A") (A') (A") (A')
                 (A") (A') (A') (A') (A") (A') (A") (A') (A') (A')
                 (A") (A") (A') (A") (A') (A") (A') (A") (A") (A')
                 (A') (A") (A") (A") (A") (A') (A') (A") (A') (A')
                 (A") (A') (A') (A') (A") (A') (A') (A") (A") (A')
                 (A") (A') (A') (A") (A') (A') (A") (A') (A") (A')
                 (A") (A') (A') (A") (A") (A') (A') (A") (A") (A")
                 (A") (A') (A") (A') (A') (A") (A') (A') (A') (A')
                 (A") (A") (A') (A") (A') (A") (A") (A") (A') (A')
                 (A") (A') (A") (A') (A') (A') (A") (A') (A') (A")
                 (A") (A') (A") (A') (A") (A") (A') (A') (A") (A')
                 (A') (A") (A") (A') (A") (A') (A") (A") (A') (A')
                 (A') (A') (A") (A") (A') (A") (A') (A") (A") (A")
                 (A') (A') (A") (A') (A') (A') (A") (A") (A") (A')
                 (A') (A') (A") (A") (A') (A") (A') (A") (A') (A")
                 (A") (A') (A") (A") (A') (A') (A') (A") (A') (A")
                 (A') (A") (A') (A') (A") (A') (A') (A") (A') (A")
                 (A') (A") (A") (A') (A") (A') (A') (A") (A") (A')
                 (A') (A") (A') (A") (A') (A') (A") (A') (A') (A")
                 (A') (A') (A") (A') (A") (A") (A') (A') (A") (A")
                 (A") (A') (A") (A") (A') (A") (A') (A") (A') (A")
                 (A') (A') (A") (A") (A') (A') (A') (A') (A") (A")
                 (A") (A") (A') (A') (A") (A') (A") (A') (A') (A')
                 (A") (A") (A") (A") (A') (A') (A') (A") (A') (A")
                 (A') (A") (A') (A') (A") (A") (A') (A') (A") (A')
                 (A') (A") (A') (A")
 The electronic state is 1-A'.
 Alpha  occ. eigenvalues --  -10.19582 -10.19582 -10.19535 -10.19534 -10.19480
 Alpha  occ. eigenvalues --  -10.19480 -10.19424 -10.19424 -10.18593 -10.18581
 Alpha  occ. eigenvalues --  -10.18535 -10.18535 -10.18534 -10.18534 -10.18450
 Alpha  occ. eigenvalues --  -10.18450 -10.18406 -10.18406 -10.18379 -10.18379
 Alpha  occ. eigenvalues --  -10.18324 -10.18324 -10.18119 -10.18119 -10.18069
 Alpha  occ. eigenvalues --  -10.18069 -10.18031 -10.18031 -10.17955 -10.17955
 Alpha  occ. eigenvalues --  -10.17185 -10.17185 -10.17125 -10.17117 -10.17117
 Alpha  occ. eigenvalues --  -10.17113 -10.17113 -10.17037 -10.17031 -10.17031
 Alpha  occ. eigenvalues --  -10.17000 -10.17000 -10.16924 -10.16924  -0.89995
 Alpha  occ. eigenvalues --   -0.88520  -0.88496  -0.87067  -0.86169  -0.84761
 Alpha  occ. eigenvalues --   -0.83029  -0.81632  -0.80431  -0.79131  -0.78979
 Alpha  occ. eigenvalues --   -0.78904  -0.77742  -0.77495  -0.76573  -0.75182
 Alpha  occ. eigenvalues --   -0.74870  -0.73480  -0.73470  -0.72097  -0.69783
 Alpha  occ. eigenvalues --   -0.68384  -0.67946  -0.66555  -0.63320  -0.62950
 Alpha  occ. eigenvalues --   -0.61929  -0.61685  -0.61590  -0.60527  -0.60246
 Alpha  occ. eigenvalues --   -0.59865  -0.59118  -0.58480  -0.58259  -0.56902
 Alpha  occ. eigenvalues --   -0.53290  -0.53134  -0.52855  -0.51921  -0.51751
 Alpha  occ. eigenvalues --   -0.51510  -0.50199  -0.49090  -0.48828  -0.47751
 Alpha  occ. eigenvalues --   -0.47702  -0.46649  -0.46367  -0.46107  -0.46067
 Alpha  occ. eigenvalues --   -0.45336  -0.44790  -0.44683  -0.44504  -0.43719
 Alpha  occ. eigenvalues --   -0.43160  -0.43103  -0.42401  -0.42359  -0.42130
 Alpha  occ. eigenvalues --   -0.41963  -0.41751  -0.41300  -0.40971  -0.40965
 Alpha  occ. eigenvalues --   -0.40734  -0.40591  -0.40219  -0.39878  -0.39622
 Alpha  occ. eigenvalues --   -0.38806  -0.38744  -0.37399  -0.37395  -0.36894
 Alpha  occ. eigenvalues --   -0.36095  -0.35971  -0.35594  -0.34685  -0.34639
 Alpha  occ. eigenvalues --   -0.34349  -0.33616  -0.33513  -0.33298  -0.32932
 Alpha  occ. eigenvalues --   -0.32471  -0.32177  -0.31928  -0.30784  -0.30277
 Alpha  occ. eigenvalues --   -0.29034  -0.28858  -0.27660  -0.27242  -0.25825
 Alpha  occ. eigenvalues --   -0.25050  -0.23604  -0.23202  -0.21785  -0.18488
 Alpha  occ. eigenvalues --   -0.17040
 Alpha virt. eigenvalues --   -0.10395  -0.08957  -0.05085  -0.03687  -0.03400
 Alpha virt. eigenvalues --   -0.01981  -0.00772   0.00627   0.01461   0.01713
 Alpha virt. eigenvalues --    0.02465   0.02824   0.03128   0.03772   0.03987
 Alpha virt. eigenvalues --    0.03988   0.04647   0.05352   0.05753   0.05909
 Alpha virt. eigenvalues --    0.05999   0.06499   0.07269   0.07672   0.07776
 Alpha virt. eigenvalues --    0.07848   0.08611   0.08887   0.09059   0.09619
 Alpha virt. eigenvalues --    0.09697   0.09875   0.10793   0.10855   0.11181
 Alpha virt. eigenvalues --    0.11672   0.12541   0.12792   0.13455   0.13527
 Alpha virt. eigenvalues --    0.14263   0.14879   0.15048   0.15654   0.17463
 Alpha virt. eigenvalues --    0.17859   0.18348   0.18610   0.18844   0.19198
 Alpha virt. eigenvalues --    0.19535   0.20197   0.22321   0.22381   0.23631
 Alpha virt. eigenvalues --    0.23802   0.23880   0.24406   0.25070   0.25191
 Alpha virt. eigenvalues --    0.25271   0.26244   0.27002   0.27045   0.27292
 Alpha virt. eigenvalues --    0.27688   0.27911   0.28144   0.28681   0.28755
 Alpha virt. eigenvalues --    0.28952   0.29362   0.29556   0.30117   0.30138
 Alpha virt. eigenvalues --    0.30192   0.30632   0.31299   0.31614   0.32094
 Alpha virt. eigenvalues --    0.32219   0.34072   0.34471   0.35054   0.35235
 Alpha virt. eigenvalues --    0.35438   0.35658   0.35963   0.36185   0.36558
 Alpha virt. eigenvalues --    0.36944   0.37336   0.37609   0.38163   0.38224
 Alpha virt. eigenvalues --    0.38561   0.38654   0.38889   0.38998   0.39144
 Alpha virt. eigenvalues --    0.39222   0.39394   0.39625   0.39765   0.40005
 Alpha virt. eigenvalues --    0.40053   0.40494   0.40524   0.41374   0.41502
 Alpha virt. eigenvalues --    0.41922   0.42297   0.42453   0.42509   0.42530
 Alpha virt. eigenvalues --    0.42556   0.42704   0.43197   0.43210   0.43503
 Alpha virt. eigenvalues --    0.43680   0.44114   0.44166   0.44504   0.44925
 Alpha virt. eigenvalues --    0.45156   0.45212   0.45283   0.45434   0.45806
 Alpha virt. eigenvalues --    0.45958   0.46079   0.46232   0.46506   0.46758
 Alpha virt. eigenvalues --    0.46917   0.47201   0.47307   0.47577   0.47885
 Alpha virt. eigenvalues --    0.48083   0.48262   0.48532   0.48918   0.48991
 Alpha virt. eigenvalues --    0.49316   0.49879   0.50148   0.50337   0.50338
 Alpha virt. eigenvalues --    0.50593   0.50721   0.50916   0.51389   0.51657
 Alpha virt. eigenvalues --    0.51835   0.52004   0.52681   0.53551   0.54259
 Alpha virt. eigenvalues --    0.54499   0.54696   0.54742   0.55471   0.55605
 Alpha virt. eigenvalues --    0.56122   0.57402   0.57487   0.57555   0.57575
 Alpha virt. eigenvalues --    0.58385   0.58720   0.59054   0.59307   0.59506
 Alpha virt. eigenvalues --    0.59914   0.60633   0.61003   0.61184   0.61461
 Alpha virt. eigenvalues --    0.61624   0.61921   0.62129   0.62153   0.62628
 Alpha virt. eigenvalues --    0.62675   0.63077   0.63237   0.63533   0.63541
 Alpha virt. eigenvalues --    0.64007   0.64021   0.64758   0.65196   0.66000
 Alpha virt. eigenvalues --    0.66143   0.66352   0.66441   0.66473   0.66553
 Alpha virt. eigenvalues --    0.67260   0.67475   0.69113   0.69965   0.70598
 Alpha virt. eigenvalues --    0.70941   0.71094   0.71472   0.71811   0.72220
 Alpha virt. eigenvalues --    0.72739   0.72803   0.72972   0.73484   0.73747
 Alpha virt. eigenvalues --    0.74203   0.74806   0.75534   0.75666   0.76080
 Alpha virt. eigenvalues --    0.76108   0.77001   0.77541   0.77543   0.77899
 Alpha virt. eigenvalues --    0.78459   0.79001   0.79285   0.79378   0.80509
 Alpha virt. eigenvalues --    0.80673   0.80705   0.81561   0.81563   0.82182
 Alpha virt. eigenvalues --    0.82242   0.83002   0.83007   0.83290   0.83925
 Alpha virt. eigenvalues --    0.84156   0.84517   0.85441   0.85507   0.85683
 Alpha virt. eigenvalues --    0.86758   0.86772   0.87574   0.88319   0.89299
 Alpha virt. eigenvalues --    0.89954   0.90156   0.90496   0.90688   0.91090
 Alpha virt. eigenvalues --    0.91430   0.92343   0.93007   0.93426   0.94422
 Alpha virt. eigenvalues --    0.94596   0.94739   0.95395   0.96210   0.96274
 Alpha virt. eigenvalues --    0.96596   0.96603   0.96834   0.97292   0.98094
 Alpha virt. eigenvalues --    0.98179   0.99193   0.99356   0.99794   1.00282
 Alpha virt. eigenvalues --    1.00419   1.00889   1.01747   1.01911   1.02284
 Alpha virt. eigenvalues --    1.02693   1.03449   1.03558   1.03991   1.04070
 Alpha virt. eigenvalues --    1.04601   1.04934   1.05105   1.05513   1.05732
 Alpha virt. eigenvalues --    1.06091   1.06151   1.06171   1.06305   1.06415
 Alpha virt. eigenvalues --    1.06900   1.07171   1.07540   1.08140   1.08263
 Alpha virt. eigenvalues --    1.09142   1.09395   1.09688   1.10484   1.10496
 Alpha virt. eigenvalues --    1.10870   1.11306   1.11792   1.12776   1.12842
 Alpha virt. eigenvalues --    1.12898   1.13330   1.13813   1.13938   1.14046
 Alpha virt. eigenvalues --    1.14891   1.15313   1.15756   1.16162   1.17099
 Alpha virt. eigenvalues --    1.17261   1.18060   1.18325   1.19071   1.20836
 Alpha virt. eigenvalues --    1.21204   1.22213   1.22631   1.23120   1.23407
 Alpha virt. eigenvalues --    1.24318   1.25528   1.27483   1.27845   1.30038
 Alpha virt. eigenvalues --    1.30241   1.30771   1.31856   1.32176   1.33121
 Alpha virt. eigenvalues --    1.34524   1.35531   1.35866   1.36689   1.37092
 Alpha virt. eigenvalues --    1.38766   1.39323   1.39505   1.39987   1.40474
 Alpha virt. eigenvalues --    1.40543   1.40814   1.40930   1.41602   1.42203
 Alpha virt. eigenvalues --    1.42713   1.43234   1.44041   1.44240   1.44607
 Alpha virt. eigenvalues --    1.45146   1.45738   1.46502   1.47021   1.47170
 Alpha virt. eigenvalues --    1.47654   1.47798   1.48354   1.48841   1.48901
 Alpha virt. eigenvalues --    1.48947   1.49622   1.49919   1.50176   1.50615
 Alpha virt. eigenvalues --    1.50886   1.51453   1.51729   1.52360   1.52786
 Alpha virt. eigenvalues --    1.52858   1.53764   1.53822   1.53942   1.54135
 Alpha virt. eigenvalues --    1.54668   1.54862   1.55176   1.55183   1.55354
 Alpha virt. eigenvalues --    1.55739   1.57326   1.57820   1.57974   1.58448
 Alpha virt. eigenvalues --    1.59068   1.59219   1.59620   1.60614   1.60816
 Alpha virt. eigenvalues --    1.61850   1.61865   1.62466   1.62800   1.64169
 Alpha virt. eigenvalues --    1.64857   1.65274   1.66069   1.66738   1.67596
 Alpha virt. eigenvalues --    1.69018   1.69165   1.69475   1.70290   1.70482
 Alpha virt. eigenvalues --    1.70579   1.71546   1.71549   1.72086   1.72633
 Alpha virt. eigenvalues --    1.73077   1.73340   1.73522   1.73786   1.73809
 Alpha virt. eigenvalues --    1.73945   1.74168   1.74633   1.75041   1.76477
 Alpha virt. eigenvalues --    1.76967   1.78123   1.78352   1.78767   1.79763
 Alpha virt. eigenvalues --    1.80005   1.80066   1.80109   1.81274   1.82007
 Alpha virt. eigenvalues --    1.82107   1.82284   1.82515   1.82651   1.82873
 Alpha virt. eigenvalues --    1.83627   1.83682   1.84028   1.84809   1.85100
 Alpha virt. eigenvalues --    1.85283   1.86547   1.87033   1.87277   1.87392
 Alpha virt. eigenvalues --    1.87533   1.87841   1.88159   1.88438   1.88589
 Alpha virt. eigenvalues --    1.88833   1.88957   1.89049   1.89887   1.90491
 Alpha virt. eigenvalues --    1.90814   1.91432   1.91535   1.92077   1.92194
 Alpha virt. eigenvalues --    1.92410   1.93017   1.93072   1.93488   1.93545
 Alpha virt. eigenvalues --    1.93774   1.93877   1.94333   1.94532   1.95523
 Alpha virt. eigenvalues --    1.95811   1.95978   1.96250   1.96592   1.97237
 Alpha virt. eigenvalues --    1.98257   1.99526   2.00457   2.00525   2.00750
 Alpha virt. eigenvalues --    2.01138   2.01260   2.02485   2.02544   2.03950
 Alpha virt. eigenvalues --    2.05357   2.06070   2.07765   2.07830   2.08569
 Alpha virt. eigenvalues --    2.09221   2.09332   2.10114   2.10812   2.11283
 Alpha virt. eigenvalues --    2.11627   2.11734   2.13061   2.13904   2.15018
 Alpha virt. eigenvalues --    2.15195   2.15941   2.16529   2.16632   2.17684
 Alpha virt. eigenvalues --    2.17980   2.19230   2.20308   2.21663   2.22006
 Alpha virt. eigenvalues --    2.22274   2.22539   2.22986   2.23151   2.23814
 Alpha virt. eigenvalues --    2.23963   2.24927   2.25413   2.26645   2.26673
 Alpha virt. eigenvalues --    2.26745   2.27258   2.27344   2.27640   2.28075
 Alpha virt. eigenvalues --    2.28096   2.29286   2.29395   2.30340   2.32062
 Alpha virt. eigenvalues --    2.33832   2.34981   2.35166   2.36632   2.38685
 Alpha virt. eigenvalues --    2.38795   2.40152   2.40278   2.40638   2.41716
 Alpha virt. eigenvalues --    2.42514   2.42566   2.44027   2.44407   2.45169
 Alpha virt. eigenvalues --    2.45391   2.45772   2.46649   2.46894   2.48671
 Alpha virt. eigenvalues --    2.51320   2.52759   2.52927   2.53059   2.54088
 Alpha virt. eigenvalues --    2.54609   2.54740   2.55527   2.55996   2.56912
 Alpha virt. eigenvalues --    2.57507   2.58234   2.58974   2.59232   2.59252
 Alpha virt. eigenvalues --    2.59737   2.60387   2.60645   2.60912   2.60989
 Alpha virt. eigenvalues --    2.61301   2.61559   2.61820   2.61860   2.62978
 Alpha virt. eigenvalues --    2.63019   2.63547   2.63910   2.64459   2.64622
 Alpha virt. eigenvalues --    2.65266   2.65426   2.65741   2.66369   2.66763
 Alpha virt. eigenvalues --    2.66835   2.67574   2.67867   2.67975   2.68030
 Alpha virt. eigenvalues --    2.68393   2.68855   2.68979   2.69385   2.69454
 Alpha virt. eigenvalues --    2.69503   2.69654   2.69777   2.70471   2.70550
 Alpha virt. eigenvalues --    2.70805   2.71132   2.71967   2.72589   2.72618
 Alpha virt. eigenvalues --    2.73094   2.73559   2.74090   2.74366   2.74606
 Alpha virt. eigenvalues --    2.74697   2.75077   2.76321   2.76518   2.76780
 Alpha virt. eigenvalues --    2.77111   2.77509   2.77551   2.78367   2.79106
 Alpha virt. eigenvalues --    2.79209   2.79470   2.79853   2.79919   2.81110
 Alpha virt. eigenvalues --    2.81891   2.82088   2.82948   2.83398   2.85312
 Alpha virt. eigenvalues --    2.85382   2.86222   2.86420   2.86986   2.87186
 Alpha virt. eigenvalues --    2.87708   2.88805   2.89573   2.90446   2.91846
 Alpha virt. eigenvalues --    2.92441   2.92693   2.93157   2.93209   2.93715
 Alpha virt. eigenvalues --    2.95535   2.95816   2.95950   2.97779   2.97791
 Alpha virt. eigenvalues --    2.98716   2.99114   3.00423   3.01675   3.02523
 Alpha virt. eigenvalues --    3.04453   3.05440   3.06226   3.07249   3.07294
 Alpha virt. eigenvalues --    3.08203   3.08654   3.15605   3.15941   3.16537
 Alpha virt. eigenvalues --    3.16932   3.17220   3.17756   3.19314   3.20317
 Alpha virt. eigenvalues --    3.20844   3.21082   3.23697   3.24550   3.29183
 Alpha virt. eigenvalues --    3.29872   3.30108   3.30628   3.31145   3.32702
 Alpha virt. eigenvalues --    3.35073   3.35235   3.36213   3.36416   3.36689
 Alpha virt. eigenvalues --    3.37054   3.37294   3.37628   3.38973   3.39407
 Alpha virt. eigenvalues --    3.40087   3.40906   3.40912   3.42628   3.44594
 Alpha virt. eigenvalues --    3.44906   3.45900   3.46408   3.48949   3.49081
 Alpha virt. eigenvalues --    3.49963   3.51121   3.51160   3.51595   3.52800
 Alpha virt. eigenvalues --    3.54519   3.57010   3.58328   3.58426   3.59787
 Alpha virt. eigenvalues --    3.61381   3.62389   3.62518   3.63596   3.63821
 Alpha virt. eigenvalues --    3.63920   3.66035   3.66381   3.66856   3.68049
 Alpha virt. eigenvalues --    3.68464   3.68675   3.70511   3.70713   4.00004
 Alpha virt. eigenvalues --    4.00060   4.01344   4.01666   4.01730   4.01766
 Alpha virt. eigenvalues --    4.02809   4.03145   4.15631   4.16197   4.17207
 Alpha virt. eigenvalues --    4.17671   4.18278   4.20313   4.20759   4.21902
 Alpha virt. eigenvalues --    4.22044   4.22563   4.23734   4.24520   4.25532
 Alpha virt. eigenvalues --    4.28080   4.38175   4.40183   4.61718   4.63732
 Alpha virt. eigenvalues --    4.78575   4.79177   4.79956   4.80414   4.80826
 Alpha virt. eigenvalues --    4.81910   4.81990   4.82442   4.84078   4.84419
 Alpha virt. eigenvalues --   23.39632  23.42871  23.54906  23.58338  23.69505
 Alpha virt. eigenvalues --   23.72307  23.77063  23.78556  23.80800  23.81165
 Alpha virt. eigenvalues --   23.82273  23.83282  23.85682  23.87200  23.88620
 Alpha virt. eigenvalues --   23.89582  23.90187  23.90819  23.91774  23.93482
 Alpha virt. eigenvalues --   23.96939  23.98185  23.98518  23.99322  24.08719
 Alpha virt. eigenvalues --   24.09433  24.09993  24.10095  24.10799  24.11399
 Alpha virt. eigenvalues --   24.11653  24.13187  24.13290  24.13769  24.14833
 Alpha virt. eigenvalues --   24.15241  24.15281  24.15518  24.16553  24.16585
 Alpha virt. eigenvalues --   24.19903  24.19948  24.21384  24.21443
          Condensed to atoms (all electrons):
 Mulliken charges:
               1
     1  C   -0.056690
     2  C   -0.065787
     3  C   -0.069120
     4  C   -0.050066
     5  C   -0.092950
     6  C   -0.092418
     7  C   -0.036761
     8  C   -0.047481
     9  C   -0.003947
    10  C   -0.064199
    11  H    0.084885
    12  H    0.076673
    13  H    0.077817
    14  H    0.085024
    15  H    0.097449
    16  H    0.097930
    17  C   -0.041169
    18  C   -0.047481
    19  C   -0.008412
    20  C   -0.064199
    21  H    0.075367
    22  H    0.076486
    23  C   -0.036761
    24  C   -0.056690
    25  C   -0.003947
    26  C   -0.065787
    27  H    0.076673
    28  H    0.077817
    29  C   -0.069120
    30  C   -0.092950
    31  C   -0.050066
    32  C   -0.092418
    33  H    0.084885
    34  H    0.097930
    35  H    0.097449
    36  H    0.085024
    37  C   -0.033638
    38  C   -0.108050
    39  C   -0.062063
    40  C   -0.051517
    41  C   -0.087811
    42  C   -0.115450
    43  C   -0.028076
    44  C   -0.023586
    45  C   -0.009823
    46  C   -0.111013
    47  H    0.078975
    48  H    0.070899
    49  H    0.118421
    50  H    0.121956
    51  H    0.087785
    52  H    0.091480
    53  C   -0.032409
    54  C   -0.023586
    55  C   -0.013475
    56  C   -0.111013
    57  H    0.069494
    58  H    0.116418
    59  C   -0.028076
    60  C   -0.033638
    61  C   -0.009823
    62  C   -0.108050
    63  H    0.070899
    64  H    0.118421
    65  C   -0.062063
    66  C   -0.087811
    67  C   -0.051517
    68  C   -0.115450
    69  H    0.078975
    70  H    0.091480
    71  H    0.087785
    72  H    0.121956
 Sum of Mulliken charges =   0.00000
 Mulliken charges with hydrogens summed into heavy atoms:
               1
     1  C   -0.056690
     2  C   -0.065787
     3  C    0.015765
     4  C    0.034958
     5  C    0.004980
     6  C    0.005031
     7  C    0.039912
     8  C   -0.047481
     9  C    0.073870
    10  C   -0.064199
    17  C    0.034198
    18  C   -0.047481
    19  C    0.068074
    20  C   -0.064199
    23  C    0.039912
    24  C   -0.056690
    25  C    0.073870
    26  C   -0.065787
    29  C    0.015765
    30  C    0.004980
    31  C    0.034958
    32  C    0.005031
    37  C   -0.033638
    38  C   -0.108050
    39  C    0.016912
    40  C    0.070439
    41  C    0.003669
    42  C   -0.027665
    43  C    0.042823
    44  C   -0.023586
    45  C    0.108597
    46  C   -0.111013
    53  C    0.037085
    54  C   -0.023586
    55  C    0.102944
    56  C   -0.111013
    59  C    0.042823
    60  C   -0.033638
    61  C    0.108597
    62  C   -0.108050
    65  C    0.016912
    66  C    0.003669
    67  C    0.070439
    68  C   -0.027665
         Mulliken charges condensed to fragments:
      1     -0.017010
      2      0.017010
 Electronic spatial extent (au):  <R**2>=          26500.2714
 Charge=              0.0000 electrons
 Dipole moment (field-independent basis, Debye):
    X=             -0.2615    Y=             -1.3468    Z=              0.0000  Tot=              1.3719
 Quadrupole moment (field-independent basis, Debye-Ang):
   XX=           -246.0117   YY=           -249.1415   ZZ=           -219.5765
   XY=              0.1587   XZ=              0.0000   YZ=              0.0000
 Traceless Quadrupole moment (field-independent basis, Debye-Ang):
   XX=             -7.7685   YY=            -10.8983   ZZ=             18.6667
   XY=              0.1587   XZ=              0.0000   YZ=              0.0000
 Octapole moment (field-independent basis, Debye-Ang**2):
  XXX=            -22.0274  YYY=            185.2015  ZZZ=              0.0000  XYY=              4.4473
  XXY=            -74.6781  XXZ=              0.0000  XZZ=             -4.5680  YZZ=            -31.1953
  YYZ=              0.0000  XYZ=              0.0000
 Hexadecapole moment (field-independent basis, Debye-Ang**3):
 XXXX=          -1364.1062 YYYY=         -12464.3650 ZZZZ=         -21022.3658 XXXY=           -535.6294
 XXXZ=              0.0000 YYYX=           -540.3874 YYYZ=              0.0000 ZZZX=              0.0000
 ZZZY=              0.0000 XXYY=          -2378.3462 XXZZ=          -4177.5297 YYZZ=          -5847.5029
 XXYZ=              0.0000 YYXZ=              0.0000 ZZXY=           -158.1384
 N-N= 4.587806408457D+03 E-N=-1.310607610724D+04  KE= 1.686675943279D+03
 Symmetry A'   KE= 9.134168886498D+02
 Symmetry A"   KE= 7.732590546291D+02
 No NMR shielding tensors so no spin-rotation constants.
 Leave Link  601 at Wed Sep 27 16:39:49 2023, MaxMem=  3221225472 cpu:              45.8 elap:               1.4
 (Enter /home/center/opt/aarch64/apps/gaussian16/c01/g16/l122.exe)
 CPIOFr:  IOpCl= 0 IRwI=-1 IRwCP=  731 ICalc= -1 LCPTot=     1419224 Len1MO=     3708034 IndFrg=     1419224
 CPIOFr:  IOpCl= 0 IRwI=-1 IRwCP=  731 ICalc=  0 LCPTot=     1419224 Len1MO=     3708034 IndFrg=     5127258
 Counterpoise: doing calculation for fragment   1 using the basis set of the full-system, NewBq=T
 Leave Link  122 at Wed Sep 27 16:39:52 2023, MaxMem=  3221225472 cpu:               8.4 elap:               0.5
 (Enter /home/center/opt/aarch64/apps/gaussian16/c01/g16/l301.exe)
 Basis read from rwf:  (5D, 7F)
 No pseudopotential information found on rwf file.
 There are   528 symmetry adapted cartesian basis functions of A'  symmetry.
 There are   476 symmetry adapted cartesian basis functions of A"  symmetry.
 There are   504 symmetry adapted basis functions of A'  symmetry.
 There are   456 symmetry adapted basis functions of A"  symmetry.
   960 basis functions,  1632 primitive gaussians,  1004 cartesian basis functions
    73 alpha electrons       73 beta electrons
       nuclear repulsion energy      1494.3575060744 Hartrees.
 IExCor=  402 DFT=T Ex+Corr=B3LYP ExCW=0 ScaHFX=  0.200000
 ScaDFX=  0.800000  0.720000  1.000000  0.810000 ScalE2=  1.000000  1.000000
 IRadAn=      5 IRanWt=     -1 IRanGd=            0 ICorTp=0 IEmpDi=131
 NAtoms=   72 NActive=   72 NUniq=   40 SFac= 3.24D+00 NAtFMM=   60 NAOKFM=T Big=F
 Integral buffers will be    131072 words long.
 Raffenetti 2 integral format.
 Two-electron integral symmetry is turned on.
 R6Disp:  Grimme-D3 Dispersion energy=       -0.0303938888 Hartrees.
 Nuclear repulsion after empirical dispersion term =     1494.3271121856 Hartrees.
 No density basis found on file    718.
 Leave Link  301 at Wed Sep 27 16:39:54 2023, MaxMem=  3221225472 cpu:               2.9 elap:               0.1
 (Enter /home/center/opt/aarch64/apps/gaussian16/c01/g16/l302.exe)
 NPDir=0 NMtPBC=     1 NCelOv=     1 NCel=       1 NClECP=     1 NCelD=      1
         NCelK=      1 NCelE2=     1 NClLst=     1 CellRange=     0.0.
 One-electron integrals computed using PRISM.
 One-electron integral symmetry used in STVInt
 NBasis=   960 RedAO= T EigKep=  3.84D-05  NBF=   504   456
 NBsUse=   960 1.00D-06 EigRej= -1.00D+00 NBFU=   504   456
 Precomputing XC quadrature grid using
 IXCGrd= 4 IRadAn=           5 IRanWt=          -1 IRanGd=           0 AccXCQ= 0.00D+00.
 Generated NRdTot=       0 NPtTot=           0 NUsed=           0 NTot=          32
 NSgBfM=   991   991   991   991   991 MxSgAt=    72 MxSgA2=    72.
 Leave Link  302 at Wed Sep 27 16:39:58 2023, MaxMem=  3221225472 cpu:              62.5 elap:               1.7
 (Enter /home/center/opt/aarch64/apps/gaussian16/c01/g16/l303.exe)
 DipDrv:  MaxL=1.
 Leave Link  303 at Wed Sep 27 16:40:01 2023, MaxMem=  3221225472 cpu:              13.2 elap:               0.4
 (Enter /home/center/opt/aarch64/apps/gaussian16/c01/g16/l401.exe)
 ExpMin= 1.03D-01 ExpMax= 4.56D+03 ExpMxC= 6.82D+02 IAcc=3 IRadAn=         5 AccDes= 0.00D+00
 Harris functional with IExCor=  402 and IRadAn=       5 diagonalized for initial guess.
 HarFok:  IExCor=  402 AccDes= 0.00D+00 IRadAn=         5 IDoV= 1 UseB2=F ITyADJ=14
 ICtDFT=  3500011 ScaDFX=  1.000000  1.000000  1.000000  1.000000
 FoFCou: FMM=F IPFlag=           0 FMFlag=      100000 FMFlg1=        2000
         NFxFlg=           0 DoJE=T BraDBF=F KetDBF=T FulRan=T
         wScrn=  0.000000 ICntrl=       500 IOpCl=  0 I1Cent=   200000004 NGrid=           0
         NMat0=    1 NMatS0=      1 NMatT0=    0 NMatD0=    1 NMtDS0=    0 NMtDT0=    0
 Petite list used in FoFCou.
 Harris En= -847.066313570183    
 JPrj=0 DoOrth=F DoCkMO=F.
 Initial guess orbital symmetries:
       Occupied  (A") (A') (A') (A") (A") (A') (A") (A') (A') (A")
                 (A") (A') (A') (A') (A") (A') (A") (A') (A") (A')
                 (A') (A") (A') (A") (A') (A") (A') (A') (A") (A')
                 (A") (A") (A') (A') (A") (A") (A') (A") (A') (A')
                 (A') (A") (A") (A") (A') (A') (A") (A') (A') (A")
                 (A') (A") (A") (A') (A') (A") (A') (A") (A') (A")
                 (A") (A') (A') (A") (A') (A") (A') (A") (A') (A')
                 (A") (A") (A')
       Virtual   (A') (A") (A") (A') (A') (A") (A') (A") (A') (A")
                 (A') (A') (A") (A') (A") (A') (A') (A") (A') (A")
                 (A") (A") (A') (A') (A") (A') (A') (A') (A') (A')
                 (A") (A") (A") (A') (A') (A") (A') (A") (A") (A')
                 (A') (A") (A") (A') (A") (A') (A") (A') (A") (A')
                 (A') (A") (A') (A") (A') (A') (A") (A') (A") (A")
                 (A') (A') (A') (A") (A") (A') (A") (A') (A") (A')
                 (A") (A') (A') (A") (A') (A") (A') (A') (A') (A')
                 (A") (A") (A') (A") (A") (A') (A') (A") (A') (A")
                 (A") (A") (A") (A') (A') (A") (A') (A") (A') (A')
                 (A') (A') (A") (A') (A") (A") (A') (A') (A") (A')
                 (A") (A') (A') (A') (A") (A") (A") (A") (A') (A")
                 (A") (A') (A') (A") (A') (A") (A') (A') (A") (A')
                 (A") (A') (A') (A') (A") (A') (A") (A") (A') (A')
                 (A') (A") (A') (A') (A") (A') (A") (A") (A') (A")
                 (A") (A') (A") (A') (A") (A") (A') (A') (A') (A")
                 (A") (A') (A') (A") (A') (A') (A") (A') (A") (A")
                 (A") (A') (A") (A') (A') (A") (A') (A') (A") (A')
                 (A") (A") (A') (A') (A") (A") (A') (A") (A') (A")
                 (A') (A') (A') (A") (A') (A') (A") (A") (A') (A")
                 (A') (A") (A") (A') (A") (A") (A') (A') (A') (A")
                 (A') (A") (A") (A') (A") (A') (A") (A') (A") (A')
                 (A') (A") (A') (A") (A') (A") (A') (A') (A') (A")
                 (A') (A") (A') (A") (A') (A") (A") (A') (A") (A")
                 (A') (A") (A') (A") (A') (A') (A') (A") (A") (A")
                 (A") (A') (A") (A') (A') (A') (A') (A') (A") (A")
                 (A') (A") (A") (A') (A') (A') (A") (A") (A') (A")
                 (A') (A') (A") (A") (A") (A') (A') (A") (A") (A')
                 (A') (A") (A") (A') (A') (A") (A') (A") (A') (A")
                 (A') (A') (A") (A') (A') (A') (A") (A") (A') (A')
                 (A") (A') (A') (A") (A") (A') (A") (A") (A") (A")
                 (A') (A') (A") (A') (A") (A') (A') (A") (A') (A')
                 (A") (A') (A") (A") (A') (A') (A") (A') (A') (A")
                 (A") (A') (A') (A') (A") (A') (A") (A') (A') (A")
                 (A") (A") (A") (A') (A') (A") (A") (A') (A') (A')
                 (A') (A") (A") (A') (A") (A') (A') (A") (A') (A")
                 (A') (A') (A") (A') (A") (A") (A') (A") (A') (A")
                 (A') (A") (A") (A') (A') (A") (A") (A') (A") (A')
                 (A') (A") (A') (A") (A") (A') (A') (A") (A') (A")
                 (A') (A") (A") (A') (A") (A') (A') (A') (A") (A")
                 (A') (A") (A') (A") (A") (A') (A") (A') (A') (A")
                 (A") (A') (A') (A') (A') (A") (A') (A") (A") (A')
                 (A") (A") (A') (A") (A') (A") (A") (A') (A") (A')
                 (A") (A') (A') (A') (A') (A") (A') (A") (A") (A')
                 (A") (A') (A') (A") (A') (A') (A") (A") (A") (A')
                 (A") (A') (A') (A') (A') (A") (A') (A") (A") (A")
                 (A') (A") (A') (A") (A') (A") (A') (A') (A") (A')
                 (A") (A') (A") (A') (A") (A") (A") (A') (A') (A")
                 (A') (A") (A") (A') (A") (A') (A') (A") (A") (A')
                 (A") (A') (A") (A') (A') (A") (A') (A') (A") (A")
                 (A') (A") (A') (A") (A') (A") (A') (A") (A') (A')
                 (A') (A") (A") (A") (A") (A") (A') (A') (A') (A')
                 (A") (A') (A") (A') (A") (A") (A') (A') (A") (A')
                 (A") (A') (A') (A") (A') (A") (A') (A") (A') (A')
                 (A") (A") (A') (A') (A") (A') (A') (A") (A") (A')
                 (A') (A") (A") (A') (A") (A') (A") (A') (A') (A")
                 (A') (A") (A') (A') (A") (A") (A") (A") (A') (A")
                 (A') (A') (A') (A') (A") (A') (A') (A") (A') (A")
                 (A") (A') (A") (A") (A') (A') (A") (A") (A") (A')
                 (A') (A') (A') (A") (A') (A") (A') (A") (A') (A")
                 (A') (A") (A") (A") (A') (A') (A") (A') (A") (A')
                 (A') (A") (A') (A") (A') (A") (A') (A") (A') (A')
                 (A") (A') (A") (A") (A') (A") (A") (A') (A') (A")
                 (A') (A") (A") (A") (A") (A') (A') (A') (A') (A')
                 (A") (A") (A') (A") (A') (A") (A') (A") (A') (A")
                 (A') (A") (A') (A") (A') (A") (A") (A') (A") (A')
                 (A") (A') (A') (A") (A") (A') (A") (A") (A') (A')
                 (A') (A") (A") (A') (A') (A") (A') (A") (A') (A')
                 (A") (A') (A") (A') (A') (A") (A') (A") (A') (A")
                 (A') (A") (A') (A') (A") (A") (A') (A") (A') (A')
                 (A") (A") (A') (A") (A') (A") (A') (A') (A") (A')
                 (A") (A') (A") (A') (A") (A') (A') (A") (A') (A')
                 (A") (A") (A') (A") (A") (A') (A') (A') (A') (A")
                 (A") (A") (A') (A") (A') (A") (A') (A") (A") (A')
                 (A") (A') (A") (A') (A") (A') (A') (A") (A") (A')
                 (A') (A") (A') (A') (A") (A') (A") (A') (A") (A')
                 (A") (A') (A') (A") (A") (A') (A') (A') (A") (A")
                 (A") (A') (A') (A") (A') (A') (A") (A') (A") (A')
                 (A") (A') (A') (A") (A") (A") (A') (A") (A') (A')
                 (A") (A") (A') (A") (A') (A") (A') (A') (A') (A")
                 (A") (A') (A") (A') (A") (A') (A") (A') (A') (A")
                 (A") (A') (A') (A") (A') (A") (A") (A') (A") (A')
[...]
                 (A') (A") (A') (A') (A') (A") (A") (A") (A") (A')
                 (A') (A') (A") (A") (A') (A") (A') (A") (A') (A')
                 (A") (A") (A')
       Virtual   (A') (A") (A") (A') (A') (A") (A') (A') (A') (A")
                 (A") (A') (A") (A') (A") (A') (A") (A") (A') (A")
                 (A') (A') (A") (A') (A") (A') (A') (A') (A') (A")
                 (A") (A") (A") (A') (A') (A") (A') (A") (A') (A")
                 (A') (A') (A') (A") (A') (A") (A") (A') (A') (A")
                 (A") (A') (A') (A") (A') (A") (A") (A") (A') (A")
                 (A') (A') (A') (A') (A') (A") (A') (A') (A") (A")
                 (A") (A') (A') (A') (A") (A') (A") (A") (A") (A')
                 (A') (A") (A') (A") (A") (A') (A") (A') (A') (A')
                 (A') (A') (A") (A") (A") (A") (A') (A") (A') (A")
                 (A') (A') (A') (A") (A") (A') (A') (A") (A') (A")
                 (A') (A") (A") (A") (A') (A') (A") (A') (A') (A")
                 (A') (A") (A") (A') (A') (A") (A') (A") (A') (A")
                 (A") (A') (A') (A') (A') (A") (A") (A") (A') (A")
                 (A') (A") (A') (A") (A') (A') (A") (A") (A') (A")
                 (A') (A") (A') (A") (A') (A') (A") (A') (A") (A")
                 (A') (A") (A') (A') (A") (A") (A') (A") (A') (A")
                 (A') (A') (A") (A') (A') (A") (A") (A') (A') (A')
                 (A") (A') (A") (A") (A") (A") (A') (A") (A') (A')
                 (A") (A') (A") (A') (A') (A') (A") (A') (A") (A')
                 (A") (A") (A') (A') (A") (A") (A') (A') (A") (A')
                 (A') (A') (A') (A") (A") (A") (A") (A') (A') (A")
                 (A') (A") (A") (A') (A") (A') (A") (A') (A") (A')
                 (A") (A') (A') (A") (A') (A") (A") (A') (A') (A")
                 (A") (A') (A') (A") (A") (A') (A") (A") (A") (A')
                 (A') (A") (A') (A') (A") (A') (A') (A") (A') (A")
                 (A") (A') (A") (A') (A') (A") (A") (A") (A') (A')
                 (A") (A') (A') (A") (A") (A") (A') (A") (A') (A')
                 (A") (A') (A") (A') (A") (A') (A') (A') (A") (A')
                 (A") (A") (A') (A') (A") (A") (A') (A") (A') (A")
                 (A') (A') (A") (A") (A') (A') (A") (A') (A') (A')
                 (A") (A") (A') (A") (A') (A") (A') (A") (A') (A')
                 (A') (A") (A") (A") (A') (A") (A') (A') (A') (A")
                 (A") (A') (A") (A') (A') (A") (A') (A") (A") (A')
                 (A') (A") (A') (A") (A") (A') (A') (A") (A') (A")
                 (A') (A") (A') (A") (A') (A") (A") (A') (A') (A")
                 (A') (A") (A') (A') (A") (A") (A') (A") (A') (A')
                 (A") (A') (A") (A') (A') (A") (A') (A") (A') (A")
                 (A") (A') (A") (A') (A") (A') (A") (A') (A') (A")
                 (A") (A') (A") (A') (A') (A") (A") (A') (A') (A")
                 (A') (A") (A') (A") (A') (A') (A")
 The electronic state is 1-A'.
 Alpha  occ. eigenvalues --  -10.18931 -10.18930 -10.18896 -10.18895 -10.18848
 Alpha  occ. eigenvalues --  -10.18848 -10.18813 -10.18813 -10.17956 -10.17955
 Alpha  occ. eigenvalues --  -10.17920 -10.17920 -10.17919 -10.17919 -10.17875
 Alpha  occ. eigenvalues --  -10.17875 -10.17863 -10.17863 -10.17808 -10.17808
 Alpha  occ. eigenvalues --  -10.17781 -10.17781  -0.89340  -0.87865  -0.85549
 Alpha  occ. eigenvalues --   -0.82415  -0.79820  -0.78521  -0.78314  -0.75991
 Alpha  occ. eigenvalues --   -0.74255  -0.72901  -0.69196  -0.67344  -0.62728
 Alpha  occ. eigenvalues --   -0.62370  -0.61108  -0.59964  -0.59301  -0.57689
 Alpha  occ. eigenvalues --   -0.52709  -0.52573  -0.52293  -0.49654  -0.48513
 Alpha  occ. eigenvalues --   -0.47160  -0.46110  -0.45590  -0.45476  -0.43928
 Alpha  occ. eigenvalues --   -0.43182  -0.42578  -0.41808  -0.41572  -0.41386
 Alpha  occ. eigenvalues --   -0.40692  -0.40405  -0.39579  -0.38193  -0.36732
 Alpha  occ. eigenvalues --   -0.36341  -0.35550  -0.34094  -0.33809  -0.33058
 Alpha  occ. eigenvalues --   -0.32930  -0.31612  -0.29665  -0.28406  -0.26623
 Alpha  occ. eigenvalues --   -0.24364  -0.22582  -0.17855
 Alpha virt. eigenvalues --   -0.09755  -0.04464  -0.02747  -0.00147   0.02073
 Alpha virt. eigenvalues --    0.02370   0.03189   0.04746   0.04859   0.04871
 Alpha virt. eigenvalues --    0.06161   0.06575   0.07968   0.08162   0.08303
 Alpha virt. eigenvalues --    0.09607   0.10049   0.11524   0.11533   0.13796
 Alpha virt. eigenvalues --    0.14111   0.14670   0.18092   0.18194   0.18832
 Alpha virt. eigenvalues --    0.19391   0.22815   0.23002   0.24379   0.24942
 Alpha virt. eigenvalues --    0.25581   0.27528   0.27575   0.28012   0.28228
 Alpha virt. eigenvalues --    0.28947   0.29389   0.30158   0.30759   0.31175
 Alpha virt. eigenvalues --    0.32897   0.34528   0.36420   0.36484   0.37134
 Alpha virt. eigenvalues --    0.37503   0.37629   0.37651   0.38116   0.38643
 Alpha virt. eigenvalues --    0.39094   0.39439   0.39739   0.40236   0.40435
 Alpha virt. eigenvalues --    0.41918   0.41926   0.41940   0.42289   0.42318
 Alpha virt. eigenvalues --    0.42643   0.43748   0.44233   0.44835   0.45295
 Alpha virt. eigenvalues --    0.45683   0.45924   0.45953   0.46379   0.47165
 Alpha virt. eigenvalues --    0.47805   0.47809   0.47978   0.48073   0.48231
 Alpha virt. eigenvalues --    0.48568   0.49414   0.49572   0.51377   0.51846
 Alpha virt. eigenvalues --    0.52370   0.53118   0.53671   0.55998   0.57923
 Alpha virt. eigenvalues --    0.57955   0.59048   0.59201   0.60433   0.60585
 Alpha virt. eigenvalues --    0.60693   0.61101   0.61690   0.62105   0.62173
 Alpha virt. eigenvalues --    0.63432   0.63481   0.64458   0.64535   0.65533
 Alpha virt. eigenvalues --    0.66693   0.66910   0.67680   0.67724   0.70658
 Alpha virt. eigenvalues --    0.71305   0.71405   0.71494   0.72803   0.73989
 Alpha virt. eigenvalues --    0.75405   0.75894   0.76289   0.77801   0.77809
 Alpha virt. eigenvalues --    0.78943   0.79160   0.79723   0.81162   0.81509
 Alpha virt. eigenvalues --    0.82881   0.83001   0.84383   0.84585   0.84713
 Alpha virt. eigenvalues --    0.88087   0.89711   0.89765   0.91536   0.92083
 Alpha virt. eigenvalues --    0.92578   0.93749   0.95806   0.96107   0.96442
 Alpha virt. eigenvalues --    0.96590   0.96905   0.98547   1.00356   1.01118
 Alpha virt. eigenvalues --    1.02686   1.03027   1.03354   1.04405   1.05244
 Alpha virt. eigenvalues --    1.05439   1.05525   1.05950   1.07395   1.07547
 Alpha virt. eigenvalues --    1.07686   1.08438   1.10005   1.10036   1.12070
 Alpha virt. eigenvalues --    1.13223   1.13544   1.13650   1.14526   1.15341
 Alpha virt. eigenvalues --    1.17432   1.18332   1.19657   1.20432   1.23014
 Alpha virt. eigenvalues --    1.23618   1.27884   1.28234   1.30579   1.32076
 Alpha virt. eigenvalues --    1.32743   1.34942   1.37641   1.39236   1.39896
 Alpha virt. eigenvalues --    1.39942   1.40725   1.42751   1.43476   1.43554
 Alpha virt. eigenvalues --    1.45057   1.46086   1.47119   1.47538   1.48841
 Alpha virt. eigenvalues --    1.49280   1.49417   1.50258   1.50674   1.52268
 Alpha virt. eigenvalues --    1.52650   1.53402   1.54331   1.54372   1.54781
 Alpha virt. eigenvalues --    1.54807   1.57107   1.57715   1.58569   1.59882
 Alpha virt. eigenvalues --    1.60106   1.62692   1.63242   1.64856   1.66641
 Alpha virt. eigenvalues --    1.69292   1.69605   1.69709   1.70649   1.71804
 Alpha virt. eigenvalues --    1.72459   1.72619   1.73075   1.73096   1.73680
 Alpha virt. eigenvalues --    1.77494   1.78519   1.79157   1.79419   1.80511
 Alpha virt. eigenvalues --    1.81616   1.81887   1.82058   1.83581   1.84039
 Alpha virt. eigenvalues --    1.85487   1.87392   1.87456   1.87577   1.87728
 Alpha virt. eigenvalues --    1.88131   1.88613   1.90743   1.91387   1.92190
 Alpha virt. eigenvalues --    1.92193   1.92572   1.92670   1.93517   1.93938
 Alpha virt. eigenvalues --    1.94544   1.95483   1.97262   1.99429   2.00088
 Alpha virt. eigenvalues --    2.00602   2.01362   2.03019   2.05757   2.08293
 Alpha virt. eigenvalues --    2.09111   2.09256   2.09792   2.12192   2.14098
 Alpha virt. eigenvalues --    2.15528   2.15584   2.17200   2.19751   2.20833
 Alpha virt. eigenvalues --    2.21576   2.22525   2.23381   2.24503   2.26441
 Alpha virt. eigenvalues --    2.26972   2.27242   2.27719   2.28046   2.29391
 Alpha virt. eigenvalues --    2.33301   2.35725   2.39155   2.39384   2.40817
 Alpha virt. eigenvalues --    2.42649   2.43076   2.45776   2.45994   2.46870
 Alpha virt. eigenvalues --    2.51623   2.51954   2.53354   2.53485   2.55138
 Alpha virt. eigenvalues --    2.56159   2.58701   2.58838   2.59764   2.59776
 Alpha virt. eigenvalues --    2.60682   2.61147   2.61719   2.62222   2.63349
 Alpha virt. eigenvalues --    2.63999   2.64478   2.66054   2.66794   2.67121
 Alpha virt. eigenvalues --    2.67374   2.68356   2.68872   2.68876   2.69372
 Alpha virt. eigenvalues --    2.69557   2.69907   2.70083   2.70281   2.73482
 Alpha virt. eigenvalues --    2.74771   2.74836   2.76066   2.77101   2.77577
 Alpha virt. eigenvalues --    2.78232   2.78455   2.78850   2.80822   2.82359
 Alpha virt. eigenvalues --    2.85535   2.85993   2.86737   2.87294   2.90966
 Alpha virt. eigenvalues --    2.91783   2.92195   2.93676   2.95232   2.95887
 Alpha virt. eigenvalues --    2.99270   2.99858   3.03165   3.05604   3.06852
 Alpha virt. eigenvalues --    3.07371   3.15988   3.16029   3.16647   3.19843
 Alpha virt. eigenvalues --    3.20017   3.23601   3.29134   3.29680   3.31610
 Alpha virt. eigenvalues --    3.35095   3.35458   3.35677   3.35858   3.38023
 Alpha virt. eigenvalues --    3.39887   3.41413   3.44960   3.45362   3.47993
 Alpha virt. eigenvalues --    3.48278   3.50401   3.53073   3.57439   3.58649
 Alpha virt. eigenvalues --    3.61466   3.62620   3.63208   3.63698   3.65910
 Alpha virt. eigenvalues --    3.67534   3.67678   4.00384   4.00442   4.01859
 Alpha virt. eigenvalues --    4.02182   4.16133   4.16678   4.17360   4.21240
 Alpha virt. eigenvalues --    4.22396   4.22517   4.25488   4.38492   4.62290
 Alpha virt. eigenvalues --    4.79179   4.79740   4.80562   4.82562   4.83014
 Alpha virt. eigenvalues --   23.39176  23.54541  23.69085  23.77378  23.80419
 Alpha virt. eigenvalues --   23.81537  23.86099  23.89067  23.89154  23.92210
 Alpha virt. eigenvalues --   23.97563  23.98365  24.09049  24.09932  24.10529
 Alpha virt. eigenvalues --   24.12220  24.13779  24.14375  24.15775  24.15810
 Alpha virt. eigenvalues --   24.20452  24.20497
          Condensed to atoms (all electrons):
 Mulliken charges:
               1
     1  C    0.000000
     2  C    0.000000
     3  C    0.000000
     4  C    0.000000
     5  C    0.000000
     6  C    0.000000
     7  C    0.000000
     8  C    0.000000
     9  C    0.000000
    10  C    0.000000
    11  H    0.000000
    12  H    0.000000
    13  H    0.000000
    14  H    0.000000
    15  H    0.000000
    16  H    0.000000
    17  C    0.000000
    18  C    0.000000
    19  C    0.000000
    20  C    0.000000
    21  H    0.000000
    22  H    0.000000
    23  C    0.000000
    24  C    0.000000
    25  C    0.000000
    26  C    0.000000
    27  H    0.000000
    28  H    0.000000
    29  C    0.000000
    30  C    0.000000
    31  C    0.000000
    32  C    0.000000
    33  H    0.000000
    34  H    0.000000
    35  H    0.000000
    36  H    0.000000
    37  C   -0.059168
    38  C   -0.059168
    39  C   -0.055977
    40  C   -0.055977
    41  C   -0.092198
    42  C   -0.092198
    43  C   -0.016525
    44  C   -0.054498
    45  C   -0.016525
    46  C   -0.054498
    47  H    0.082122
    48  H    0.074853
    49  H    0.074853
    50  H    0.082122
    51  H    0.094847
    52  H    0.094847
    53  C   -0.020341
    54  C   -0.054498
    55  C   -0.020341
    56  C   -0.054498
    57  H    0.073428
    58  H    0.073428
    59  C   -0.016525
    60  C   -0.059168
    61  C   -0.016525
    62  C   -0.059168
    63  H    0.074853
    64  H    0.074853
    65  C   -0.055977
    66  C   -0.092198
    67  C   -0.055977
    68  C   -0.092198
    69  H    0.082122
    70  H    0.094847
    71  H    0.094847
    72  H    0.082122
 Sum of Mulliken charges =   0.00000
 Mulliken charges with hydrogens summed into heavy atoms:
               1
     1  C    0.000000
     2  C    0.000000
     3  C    0.000000
     4  C    0.000000
     5  C    0.000000
     6  C    0.000000
     7  C    0.000000
     8  C    0.000000
     9  C    0.000000
    10  C    0.000000
    17  C    0.000000
    18  C    0.000000
    19  C    0.000000
    20  C    0.000000
    23  C    0.000000
    24  C    0.000000
    25  C    0.000000
    26  C    0.000000
    29  C    0.000000
    30  C    0.000000
    31  C    0.000000
    32  C    0.000000
    37  C   -0.059168
    38  C   -0.059168
    39  C    0.026144
    40  C    0.026144
    41  C    0.002649
    42  C    0.002649
    43  C    0.058328
    44  C   -0.054498
    45  C    0.058328
    46  C   -0.054498
    53  C    0.053087
    54  C   -0.054498
    55  C    0.053087
    56  C   -0.054498
    59  C    0.058328
    60  C   -0.059168
    61  C    0.058328
    62  C   -0.059168
    65  C    0.026144
    66  C    0.002649
    67  C    0.026144
    68  C    0.002649
         Mulliken charges condensed to fragments:
      1      0.000000
      2      0.000000
 Electronic spatial extent (au):  <R**2>=          15685.0348
 Charge=              0.0000 electrons
 Dipole moment (field-independent basis, Debye):
    X=              0.0000    Y=              0.0000    Z=              0.0000  Tot=              0.0000
 Quadrupole moment (field-independent basis, Debye-Ang):
   XX=           -136.3921   YY=           -110.7480   ZZ=           -109.0115
   XY=              0.0000   XZ=              0.0000   YZ=              0.0000
 Traceless Quadrupole moment (field-independent basis, Debye-Ang):
   XX=            -17.6749   YY=              7.9692   ZZ=              9.7057
   XY=              0.0000   XZ=              0.0000   YZ=              0.0000
 Octapole moment (field-independent basis, Debye-Ang**2):
  XXX=           1012.6594  YYY=            822.2622  ZZZ=              0.0000  XYY=            274.0874
  XXY=            337.5531  XXZ=              0.0000  XZZ=            269.7896  YZZ=            269.7896
  YYZ=              0.0000  XYZ=              0.0000
 Hexadecapole moment (field-independent basis, Debye-Ang**3):
 XXXX=          -5166.8121 YYYY=          -5186.7070 ZZZZ=         -10461.4324 XXXY=          -2506.2041
 XXXZ=              0.0000 YYYX=          -2034.9951 YYYZ=              0.0000 ZZZX=              0.0000
 ZZZY=              0.0000 XXYY=          -1770.1484 XXZZ=          -2875.6273 YYZZ=          -2636.9097
 XXYZ=              0.0000 YYXZ=              0.0000 ZZXY=           -667.6953
 N-N= 1.494327112715D+03 E-N=-4.953709177005D+03  KE= 8.433374905337D+02
 Symmetry A'   KE= 4.567052305547D+02
 Symmetry A"   KE= 3.866322599790D+02
 No NMR shielding tensors so no spin-rotation constants.
 Leave Link  601 at Wed Sep 27 16:56:45 2023, MaxMem=  3221225472 cpu:              18.8 elap:               0.5
 (Enter /home/center/opt/aarch64/apps/gaussian16/c01/g16/l122.exe)
 CPIOFr:  IOpCl= 0 IRwI=-1 IRwCP=  731 ICalc=  4 LCPTot=     1419224 Len1MO=     3708034 IndFrg=    19959394
 Restoring MOs from calculation   1 to rwf.
 CPIOFr:  IOpCl= 0 IRwI=-2 IRwCP=  731 ICalc=  0 LCPTot=     1419224 Len1MO=     3708034 IndFrg=     5127258
 Counterpoise corrected energy =   -1694.043225467197
                   BSSE energy =       0.000263417985
              sum of fragments =   -1694.039683044257
           complexation energy =      -2.39 kcal/mole (raw)
           complexation energy =      -2.22 kcal/mole (corrected)
 Leave Link  122 at Wed Sep 27 16:56:47 2023, MaxMem=  3221225472 cpu:               8.3 elap:               0.3
 (Enter /home/center/opt/aarch64/apps/gaussian16/c01/g16/l9999.exe)

 Test job not archived.
 1\1\GINC-FX0569\SP\RB3LYP\6-311G(d,p)\C44H28\Z40145W\27-Sep-2023\0\\#P
  TEST b3lyp/6-311G** EmpiricalDispersion=GD3 counterpoise=2\\pentacene
 _A1=0_A2=0_A3=45_p2\\0,1\C,0,-0.5039478476,0.5239478476,-3.6612755801\
 C,0,0.5239480325,-0.5039480325,-3.6612755629\C,0,-0.9861248463,1.00612
 48463,-4.9235927708\C,0,1.0061250889,-0.9861250889,-4.9235926697\C,0,-
 0.4963213507,0.5163213507,-6.096356521\C,0,0.5163216812,-0.4963216812,
 -6.0963564796\C,0,-0.9844684311,1.0044684311,-2.4533174875\C,0,-0.5044
 88426,0.524488426,-1.2140288145\C,0,1.0044685359,-0.9844685359,-2.4533
 173917\C,0,0.5244885437,-0.5044885437,-1.2140288362\H,0,-1.7533559667,
 1.7733559667,-4.9232600459\H,0,-1.7521866813,1.7721866813,-2.453928581
 5\H,0,1.7721859268,-1.7521859268,-2.4539284818\H,0,1.7733558421,-1.753
 3558421,-4.9232597785\H,0,0.8905568758,-0.8705568758,-7.0425276922\H,0
 ,-0.8705565046,0.8905565046,-7.042527775\C,0,-0.9848184961,1.004818496
 1,0.0099998782\C,0,-0.5044883957,0.5244883957,1.2340295553\C,0,1.00481
 85643,-0.9848185643,0.0099998696\C,0,0.5244885146,-0.5044885146,1.2340
 295261\H,0,-1.7524699697,1.7724699697,0.0099999205\H,0,1.772468921,-1.
 752468921,0.0099999641\C,0,-0.9844683048,1.0044683048,2.4733171385\C,0
 ,-0.5039477114,0.5239477114,3.681276331\C,0,1.0044684211,-0.9844684211
 ,2.4733170835\C,0,0.5239479079,-0.5039479079,3.6812763217\H,0,-1.75218
 65527,1.7721865527,2.4739285326\H,0,1.7721858092,-1.7521858092,2.47392
 83796\C,0,-0.9861245177,1.0061245177,4.9435920588\C,0,-0.4963209372,0.
 5163209372,6.116356633\C,0,1.0061247659,-0.9861247659,4.9435919377\C,0
 ,0.5163212637,-0.4963212637,6.1163566075\H,0,-1.7533556504,1.773355650
 4,4.9432601504\H,0,-0.8705567426,0.8905567426,7.0625274368\H,0,0.89055
 70967,-0.8705570967,7.0625272142\H,0,1.7733555414,-1.7533555414,4.9432
 599297\C,0,6.4960521524,0.5239478476,-3.6612755801\C,0,7.5239480325,-0
 .5039480325,-3.6612755629\C,0,6.0138751537,1.0061248463,-4.9235927708\
 C,0,8.0061250889,-0.9861250889,-4.9235926697\C,0,6.5036786493,0.516321
 3507,-6.096356521\C,0,7.5163216812,-0.4963216812,-6.0963564796\C,0,6.0
 155315689,1.0044684311,-2.4533174875\C,0,6.495511574,0.524488426,-1.21
 40288145\C,0,8.0044685359,-0.9844685359,-2.4533173917\C,0,7.5244885437
 ,-0.5044885437,-1.2140288362\H,0,5.2466440333,1.7733559667,-4.92326004
 59\H,0,5.2478133187,1.7721866813,-2.4539285815\H,0,8.7721859268,-1.752
 1859268,-2.4539284818\H,0,8.7733558421,-1.7533558421,-4.9232597785\H,0
 ,7.8905568758,-0.8705568758,-7.0425276922\H,0,6.1294434954,0.890556504
 6,-7.042527775\C,0,6.0151815039,1.0048184961,0.0099998782\C,0,6.495511
 6043,0.5244883957,1.2340295553\C,0,8.0048185643,-0.9848185643,0.009999
 8696\C,0,7.5244885146,-0.5044885146,1.2340295261\H,0,5.2475300303,1.77
 24699697,0.0099999205\H,0,8.772468921,-1.752468921,0.0099999641\C,0,6.
 0155316952,1.0044683048,2.4733171385\C,0,6.4960522886,0.5239477114,3.6
 81276331\C,0,8.0044684211,-0.9844684211,2.4733170835\C,0,7.5239479079,
 -0.5039479079,3.6812763217\H,0,5.2478134473,1.7721865527,2.4739285326\
 H,0,8.7721858092,-1.7521858092,2.4739283796\C,0,6.0138754823,1.0061245
 177,4.9435920588\C,0,6.5036790628,0.5163209372,6.116356633\C,0,8.00612
 47659,-0.9861247659,4.9435919377\C,0,7.5163212637,-0.4963212637,6.1163
 566075\H,0,5.2466443496,1.7733556504,4.9432601504\H,0,6.1294432574,0.8
 905567426,7.0625274368\H,0,7.8905570967,-0.8705570967,7.0625272142\H,0
 ,8.7733555414,-1.7533555414,4.9432599297\\Version=Fujitsu-Arm-G16RevC.
 01\State=1-A'\HF=-847.0198415\RMSD=3.180e-09\Dipole=-0.0000007,0.00000
 08,0.\Quadrupole=-8.0935271,-6.2206603,14.3141874,-18.1106223,0.,0.\PG
 =CS [SG(C4H4),X(C40H24)]\\@


 KINETICS       FACT
 ---------  =  -------
 MECHANISM     FICTION
 Job cpu time:       0 days  3 hours  1 minutes 12.8 seconds.
 Elapsed time:       0 days  0 hours  4 minutes 47.1 seconds.
 File lengths (MBytes):  RWF=    718 Int=      0 D2E=      0 Chk=    208 Scr=      1
 Normal termination of Gaussian 16 at Wed Sep 27 16:56:53 2023.
