 Entering Gaussian System, Link 0=g16
 Initial command:
 /home/center/opt/aarch64/apps/gaussian16/c01/g16/l1.exe "/data/tmp/Gtmp/1007010/Gau-49.inp" -scrdir="/data/tmp/Gtmp/1007010/"
 Entering Link 1 = /home/center/opt/aarch64/apps/gaussian16/c01/g16/l1.exe PID=        50.
  
 Copyright (c) 1988-2019, Gaussian, Inc.  All Rights Reserved.
  
 This is part of the Gaussian(R) 16 program.  It is based on
 the Gaussian(R) 09 system (copyright 2009, Gaussian, Inc.),
 the Gaussian(R) 03 system (copyright 2003, Gaussian, Inc.),
 the Gaussian(R) 98 system (copyright 1998, Gaussian, Inc.),
 the Gaussian(R) 94 system (copyright 1995, Gaussian, Inc.),
 the Gaussian 92(TM) system (copyright 1992, Gaussian, Inc.),
 the Gaussian 90(TM) system (copyright 1990, Gaussian, Inc.),
 the Gaussian 88(TM) system (copyright 1988, Gaussian, Inc.),
 the Gaussian 86(TM) system (copyright 1986, Carnegie Mellon
 University), and the Gaussian 82(TM) system (copyright 1983,
 Carnegie Mellon University). Gaussian is a federally registered
 trademark of Gaussian, Inc.
  
 This software contains proprietary and confidential information,
 including trade secrets, belonging to Gaussian, Inc.
  
 This software is provided under written license and may be
 used, copied, transmitted, or stored only in accord with that
 written license.
  
 The following legend is applicable only to US Government
 contracts under FAR:
  
                    RESTRICTED RIGHTS LEGEND
  
 Use, reproduction and disclosure by the US Government is
 subject to restrictions as set forth in subparagraphs (a)
 and (c) of the Commercial Computer Software - Restricted
 Rights clause in FAR 52.227-19.
  
 Gaussian, Inc.
 340 Quinnipiac St., Bldg. 40, Wallingford CT 06492
  
  
 ---------------------------------------------------------------
 Warning -- This program may not be used in any manner that
 competes with the business of Gaussian, Inc. or will provide
 assistance to any competitor of Gaussian, Inc.  The licensee
 of this program is prohibited from giving any competitor of
 Gaussian, Inc. access to this program.  By using this program,
 the user acknowledges that Gaussian, Inc. is engaged in the
 business of creating and licensing software in the field of
 computational chemistry and represents and warrants to the
 licensee that it is not a competitor of Gaussian, Inc. and that
 it will not use this program in any manner prohibited above.
 ---------------------------------------------------------------
  

 Cite this work as:
 Gaussian 16, Revision C.01,
 M. J. Frisch, G. W. Trucks, H. B. Schlegel, G. E. Scuseria, 
 M. A. Robb, J. R. Cheeseman, G. Scalmani, V. Barone, 
 G. A. Petersson, H. Nakatsuji, X. Li, M. Caricato, A. V. Marenich, 
 J. Bloino, B. G. Janesko, R. Gomperts, B. Mennucci, H. P. Hratchian, 
 J. V. Ortiz, A. F. Izmaylov, J. L. Sonnenberg, D. Williams-Young, 
 F. Ding, F. Lipparini, F. Egidi, J. Goings, B. Peng, A. Petrone, 
 T. Henderson, D. Ranasinghe, V. G. Zakrzewski, J. Gao, N. Rega, 
 G. Zheng, W. Liang, M. Hada, M. Ehara, K. Toyota, R. Fukuda, 
 J. Hasegawa, M. Ishida, T. Nakajima, Y. Honda, O. Kitao, H. Nakai, 
 T. Vreven, K. Throssell, J. A. Montgomery, Jr., J. E. Peralta, 
 F. Ogliaro, M. J. Bearpark, J. J. Heyd, E. N. Brothers, K. N. Kudin, 
 V. N. Staroverov, T. A. Keith, R. Kobayashi, J. Normand, 
 K. Raghavachari, A. P. Rendell, J. C. Burant, S. S. Iyengar, 
 J. Tomasi, M. Cossi, J. M. Millam, M. Klene, C. Adamo, R. Cammi, 
 J. W. Ochterski, R. L. Martin, K. Morokuma, O. Farkas, 
 J. B. Foresman, and D. J. Fox, Gaussian, Inc., Wallingford CT, 2019.
 
 ************************************************
 Gaussian 16:  Fujitsu-Arm-G16RevC.01  3-Jul-2019
                   27-Sep-2023 
 ************************************************
 %mem=24GB
 %nproc=42
 Will use up to   42 processors via shared memory.
 -------------------------------------------------------------
 #P TEST b3lyp/6-311G** EmpiricalDispersion=GD3 counterpoise=2
 -------------------------------------------------------------
 1/38=1,62=2,172=1/1;
 2/12=2,17=6,18=5,40=1/2;
 1/38=1,53=2,62=2,63=1/22;
 3/5=4,6=6,7=101,11=2,25=1,30=1,74=-5,124=31/1,2,3;
 4//1;
 5/5=2,38=5/2;
 6/7=2,8=2,9=2,10=2,28=1/1;
 1/53=2,62=2,63=1/22;
 3/5=7,6=11,7=101,11=2,25=1,30=1,74=-5,82=7,124=31/1,2,3;
 4//1;
 5/5=2,38=5/2;
 6/7=2,8=2,9=2,10=2,28=1/1;
 1/53=2,62=2,63=1/22(-4);
 99/5=1,9=1/99;
 Leave Link    1 at Wed Sep 27 16:58:25 2023, MaxMem=  3221225472 cpu:               7.5 elap:               0.2
 (Enter /home/center/opt/aarch64/apps/gaussian16/c01/g16/l101.exe)
 ----------------------------
 pentacene_A1=0_A2=0_A3=45_t1
 ----------------------------
 Symbolic Z-matrix:
 Charge =  0 Multiplicity = 1 in supermolecule
 Charge =  0 Multiplicity = 1 in fragment      1.
 Charge =  0 Multiplicity = 1 in fragment      2.
 C(Fragment=1)        -0.50395   0.52395  -3.66128 
 C(Fragment=1)         0.52395  -0.50395  -3.66128 
 C(Fragment=1)        -0.98612   1.00612  -4.92359 
 C(Fragment=1)         1.00613  -0.98613  -4.92359 
 C(Fragment=1)        -0.49632   0.51632  -6.09636 
 C(Fragment=1)         0.51632  -0.49632  -6.09636 
 C(Fragment=1)        -0.98447   1.00447  -2.45332 
 C(Fragment=1)        -0.50449   0.52449  -1.21403 
 C(Fragment=1)         1.00447  -0.98447  -2.45332 
 C(Fragment=1)         0.52449  -0.50449  -1.21403 
 H(Fragment=1)        -1.75336   1.77336  -4.92326 
 H(Fragment=1)        -1.75219   1.77219  -2.45393 
 H(Fragment=1)         1.77219  -1.75219  -2.45393 
 H(Fragment=1)         1.77336  -1.75336  -4.92326 
 H(Fragment=1)         0.89056  -0.87056  -7.04253 
 H(Fragment=1)        -0.87056   0.89056  -7.04253 
 C(Fragment=1)        -0.98482   1.00482   0.01 
 C(Fragment=1)        -0.50449   0.52449   1.23403 
 C(Fragment=1)         1.00482  -0.98482   0.01 
 C(Fragment=1)         0.52449  -0.50449   1.23403 
 H(Fragment=1)        -1.75247   1.77247   0.01 
 H(Fragment=1)         1.77247  -1.75247   0.01 
 C(Fragment=1)        -0.98447   1.00447   2.47332 
 C(Fragment=1)        -0.50395   0.52395   3.68128 
 C(Fragment=1)         1.00447  -0.98447   2.47332 
 C(Fragment=1)         0.52395  -0.50395   3.68128 
 H(Fragment=1)        -1.75219   1.77219   2.47393 
 H(Fragment=1)         1.77219  -1.75219   2.47393 
 C(Fragment=1)        -0.98612   1.00612   4.94359 
 C(Fragment=1)        -0.49632   0.51632   6.11636 
 C(Fragment=1)         1.00612  -0.98612   4.94359 
 C(Fragment=1)         0.51632  -0.49632   6.11636 
 H(Fragment=1)        -1.75336   1.77336   4.94326 
 H(Fragment=1)        -0.87056   0.89056   7.06253 
 H(Fragment=1)         0.89056  -0.87056   7.06253 
 H(Fragment=1)         1.77336  -1.75336   4.94326 
 C(Fragment=2)         6.27395   2.52395  -3.66128 
 C(Fragment=2)         5.24605   1.49605  -3.66128 
 C(Fragment=2)         6.75612   3.00612  -4.92359 
 C(Fragment=2)         4.76387   1.01387  -4.92359 
 C(Fragment=2)         6.26632   2.51632  -6.09636 
 C(Fragment=2)         5.25368   1.50368  -6.09636 
 C(Fragment=2)         6.75447   3.00447  -2.45332 
 C(Fragment=2)         6.27449   2.52449  -1.21403 
 C(Fragment=2)         4.76553   1.01553  -2.45332 
 C(Fragment=2)         5.24551   1.49551  -1.21403 
 H(Fragment=2)         7.52336   3.77336  -4.92326 
 H(Fragment=2)         7.52219   3.77219  -2.45393 
 H(Fragment=2)         3.99781   0.24781  -2.45393 
 H(Fragment=2)         3.99664   0.24664  -4.92326 
 H(Fragment=2)         4.87944   1.12944  -7.04253 
 H(Fragment=2)         6.64056   2.89056  -7.04253 
 C(Fragment=2)         6.75482   3.00482   0.01 
 C(Fragment=2)         6.27449   2.52449   1.23403 
 C(Fragment=2)         4.76518   1.01518   0.01 
 C(Fragment=2)         5.24551   1.49551   1.23403 
 H(Fragment=2)         7.52247   3.77247   0.01 
 H(Fragment=2)         3.99753   0.24753   0.01 
 C(Fragment=2)         6.75447   3.00447   2.47332 
 C(Fragment=2)         6.27395   2.52395   3.68128 
 C(Fragment=2)         4.76553   1.01553   2.47332 
 C(Fragment=2)         5.24605   1.49605   3.68128 
 H(Fragment=2)         7.52219   3.77219   2.47393 
 H(Fragment=2)         3.99781   0.24781   2.47393 
 C(Fragment=2)         6.75612   3.00612   4.94359 
 C(Fragment=2)         6.26632   2.51632   6.11636 
 C(Fragment=2)         4.76388   1.01388   4.94359 
 C(Fragment=2)         5.25368   1.50368   6.11636 
 H(Fragment=2)         7.52336   3.77336   4.94326 
 H(Fragment=2)         6.64056   2.89056   7.06253 
 H(Fragment=2)         4.87944   1.12944   7.06253 
 H(Fragment=2)         3.99664   0.24664   4.94326 
 
 ITRead=  0  0  0  0  0  0  0  0  0  0  0  0  0  0  0  0  0  0  0  0
 ITRead=  0  0  0  0  0  0  0  0  0  0  0  0  0  0  0  0  0  0  0  0
 ITRead=  0  0  0  0  0  0  0  0  0  0  0  0  0  0  0  0  0  0  0  0
 ITRead=  0  0  0  0  0  0  0  0  0  0  0  0
 MicOpt= -1 -1 -1 -1 -1 -1 -1 -1 -1 -1 -1 -1 -1 -1 -1 -1 -1 -1 -1 -1
 MicOpt= -1 -1 -1 -1 -1 -1 -1 -1 -1 -1 -1 -1 -1 -1 -1 -1 -1 -1 -1 -1
 MicOpt= -1 -1 -1 -1 -1 -1 -1 -1 -1 -1 -1 -1 -1 -1 -1 -1 -1 -1 -1 -1
 MicOpt= -1 -1 -1 -1 -1 -1 -1 -1 -1 -1 -1 -1
 NAtoms=     72 NQM=       72 NQMF=       0 NMMI=      0 NMMIF=      0
                NMic=       0 NMicF=      0.
                    Isotopes and Nuclear Properties:
 (Nuclear quadrupole moments (NQMom) in fm**2, nuclear magnetic moments (NMagM)
  in nuclear magnetons)

  Atom         1           2           3           4           5           6           7           8           9          10
 IAtWgt=          12          12          12          12          12          12          12          12          12          12
 AtmWgt=  12.0000000  12.0000000  12.0000000  12.0000000  12.0000000  12.0000000  12.0000000  12.0000000  12.0000000  12.0000000
 NucSpn=           0           0           0           0           0           0           0           0           0           0
 AtZEff=   0.0000000   0.0000000   0.0000000   0.0000000   0.0000000   0.0000000   0.0000000   0.0000000   0.0000000   0.0000000
 NQMom=    0.0000000   0.0000000   0.0000000   0.0000000   0.0000000   0.0000000   0.0000000   0.0000000   0.0000000   0.0000000
 NMagM=    0.0000000   0.0000000   0.0000000   0.0000000   0.0000000   0.0000000   0.0000000   0.0000000   0.0000000   0.0000000
 AtZNuc=   6.0000000   6.0000000   6.0000000   6.0000000   6.0000000   6.0000000   6.0000000   6.0000000   6.0000000   6.0000000

  Atom        11          12          13          14          15          16          17          18          19          20
 IAtWgt=           1           1           1           1           1           1          12          12          12          12
 AtmWgt=   1.0078250   1.0078250   1.0078250   1.0078250   1.0078250   1.0078250  12.0000000  12.0000000  12.0000000  12.0000000
 NucSpn=           1           1           1           1           1           1           0           0           0           0
 AtZEff=   0.0000000   0.0000000   0.0000000   0.0000000   0.0000000   0.0000000   0.0000000   0.0000000   0.0000000   0.0000000
 NQMom=    0.0000000   0.0000000   0.0000000   0.0000000   0.0000000   0.0000000   0.0000000   0.0000000   0.0000000   0.0000000
 NMagM=    2.7928460   2.7928460   2.7928460   2.7928460   2.7928460   2.7928460   0.0000000   0.0000000   0.0000000   0.0000000
 AtZNuc=   1.0000000   1.0000000   1.0000000   1.0000000   1.0000000   1.0000000   6.0000000   6.0000000   6.0000000   6.0000000

  Atom        21          22          23          24          25          26          27          28          29          30
 IAtWgt=           1           1          12          12          12          12           1           1          12          12
 AtmWgt=   1.0078250   1.0078250  12.0000000  12.0000000  12.0000000  12.0000000   1.0078250   1.0078250  12.0000000  12.0000000
 NucSpn=           1           1           0           0           0           0           1           1           0           0
 AtZEff=   0.0000000   0.0000000   0.0000000   0.0000000   0.0000000   0.0000000   0.0000000   0.0000000   0.0000000   0.0000000
 NQMom=    0.0000000   0.0000000   0.0000000   0.0000000   0.0000000   0.0000000   0.0000000   0.0000000   0.0000000   0.0000000
 NMagM=    2.7928460   2.7928460   0.0000000   0.0000000   0.0000000   0.0000000   2.7928460   2.7928460   0.0000000   0.0000000
 AtZNuc=   1.0000000   1.0000000   6.0000000   6.0000000   6.0000000   6.0000000   1.0000000   1.0000000   6.0000000   6.0000000

  Atom        31          32          33          34          35          36          37          38          39          40
 IAtWgt=          12          12           1           1           1           1          12          12          12          12
 AtmWgt=  12.0000000  12.0000000   1.0078250   1.0078250   1.0078250   1.0078250  12.0000000  12.0000000  12.0000000  12.0000000
 NucSpn=           0           0           1           1           1           1           0           0           0           0
 AtZEff=   0.0000000   0.0000000   0.0000000   0.0000000   0.0000000   0.0000000   0.0000000   0.0000000   0.0000000   0.0000000
 NQMom=    0.0000000   0.0000000   0.0000000   0.0000000   0.0000000   0.0000000   0.0000000   0.0000000   0.0000000   0.0000000
 NMagM=    0.0000000   0.0000000   2.7928460   2.7928460   2.7928460   2.7928460   0.0000000   0.0000000   0.0000000   0.0000000
 AtZNuc=   6.0000000   6.0000000   1.0000000   1.0000000   1.0000000   1.0000000   6.0000000   6.0000000   6.0000000   6.0000000

  Atom        41          42          43          44          45          46          47          48          49          50
 IAtWgt=          12          12          12          12          12          12           1           1           1           1
 AtmWgt=  12.0000000  12.0000000  12.0000000  12.0000000  12.0000000  12.0000000   1.0078250   1.0078250   1.0078250   1.0078250
 NucSpn=           0           0           0           0           0           0           1           1           1           1
 AtZEff=   0.0000000   0.0000000   0.0000000   0.0000000   0.0000000   0.0000000   0.0000000   0.0000000   0.0000000   0.0000000
 NQMom=    0.0000000   0.0000000   0.0000000   0.0000000   0.0000000   0.0000000   0.0000000   0.0000000   0.0000000   0.0000000
 NMagM=    0.0000000   0.0000000   0.0000000   0.0000000   0.0000000   0.0000000   2.7928460   2.7928460   2.7928460   2.7928460
 AtZNuc=   6.0000000   6.0000000   6.0000000   6.0000000   6.0000000   6.0000000   1.0000000   1.0000000   1.0000000   1.0000000

  Atom        51          52          53          54          55          56          57          58          59          60
 IAtWgt=           1           1          12          12          12          12           1           1          12          12
 AtmWgt=   1.0078250   1.0078250  12.0000000  12.0000000  12.0000000  12.0000000   1.0078250   1.0078250  12.0000000  12.0000000
 NucSpn=           1           1           0           0           0           0           1           1           0           0
 AtZEff=   0.0000000   0.0000000   0.0000000   0.0000000   0.0000000   0.0000000   0.0000000   0.0000000   0.0000000   0.0000000
 NQMom=    0.0000000   0.0000000   0.0000000   0.0000000   0.0000000   0.0000000   0.0000000   0.0000000   0.0000000   0.0000000
 NMagM=    2.7928460   2.7928460   0.0000000   0.0000000   0.0000000   0.0000000   2.7928460   2.7928460   0.0000000   0.0000000
 AtZNuc=   1.0000000   1.0000000   6.0000000   6.0000000   6.0000000   6.0000000   1.0000000   1.0000000   6.0000000   6.0000000

  Atom        61          62          63          64          65          66          67          68          69          70
 IAtWgt=          12          12           1           1          12          12          12          12           1           1
 AtmWgt=  12.0000000  12.0000000   1.0078250   1.0078250  12.0000000  12.0000000  12.0000000  12.0000000   1.0078250   1.0078250
 NucSpn=           0           0           1           1           0           0           0           0           1           1
 AtZEff=   0.0000000   0.0000000   0.0000000   0.0000000   0.0000000   0.0000000   0.0000000   0.0000000   0.0000000   0.0000000
 NQMom=    0.0000000   0.0000000   0.0000000   0.0000000   0.0000000   0.0000000   0.0000000   0.0000000   0.0000000   0.0000000
 NMagM=    0.0000000   0.0000000   2.7928460   2.7928460   0.0000000   0.0000000   0.0000000   0.0000000   2.7928460   2.7928460
 AtZNuc=   6.0000000   6.0000000   1.0000000   1.0000000   6.0000000   6.0000000   6.0000000   6.0000000   1.0000000   1.0000000

  Atom        71          72
 IAtWgt=           1           1
 AtmWgt=   1.0078250   1.0078250
 NucSpn=           1           1
 AtZEff=   0.0000000   0.0000000
 NQMom=    0.0000000   0.0000000
 NMagM=    2.7928460   2.7928460
 AtZNuc=   1.0000000   1.0000000
 Leave Link  101 at Wed Sep 27 16:58:27 2023, MaxMem=  3221225472 cpu:               2.5 elap:               0.1
 (Enter /home/center/opt/aarch64/apps/gaussian16/c01/g16/l202.exe)
 Stoichiometry    C44H28
 Framework group  CS[SG(C4H4),X(C40H24)]
 Deg. of freedom   109
 Full point group                 CS      NOp   2
 Largest Abelian subgroup         CS      NOp   2
 Largest concise Abelian subgroup CS      NOp   2
                         Standard orientation:                         
 ---------------------------------------------------------------------
 Center     Atomic      Atomic             Coordinates (Angstroms)
 Number     Number       Type             X           Y           Z
 ---------------------------------------------------------------------
      1          6           0        2.052657   -2.740039    3.671276
      2          6           0        0.598993   -2.740039    3.671276
      3          6           0        2.734559   -2.740039    4.933593
      4          6           0       -0.082908   -2.740039    4.933593
      5          6           0        2.041872   -2.740039    6.106357
      6          6           0        0.609778   -2.740039    6.106357
      7          6           0        2.732216   -2.740039    2.463318
      8          6           0        2.053422   -2.740039    1.224029
      9          6           0       -0.080566   -2.740039    2.463317
     10          6           0        0.598229   -2.740039    1.224029
     11          1           0        3.819587   -2.740039    4.933260
     12          1           0        3.817934   -2.740039    2.463929
     13          1           0       -1.166282   -2.740039    2.463929
     14          1           0       -1.167936   -2.740039    4.933260
     15          1           0        0.080530   -2.740039    7.052528
     16          1           0        2.571120   -2.740039    7.052528
     17          6           0        2.732711   -2.740039    0.000000
     18          6           0        2.053422   -2.740039   -1.224029
     19          6           0       -0.081061   -2.740039    0.000000
     20          6           0        0.598229   -2.740039   -1.224029
     21          1           0        3.818334   -2.740039    0.000000
     22          1           0       -1.166682   -2.740039    0.000000
     23          6           0        2.732216   -2.740039   -2.463318
     24          6           0        2.052657   -2.740039   -3.671276
     25          6           0       -0.080566   -2.740039   -2.463317
     26          6           0        0.598993   -2.740039   -3.671276
     27          1           0        3.817934   -2.740039   -2.463929
     28          1           0       -1.166282   -2.740039   -2.463929
     29          6           0        2.734559   -2.740039   -4.933593
     30          6           0        2.041872   -2.740039   -6.106357
     31          6           0       -0.082908   -2.740039   -4.933593
     32          6           0        0.609778   -2.740039   -6.106357
     33          1           0        3.819587   -2.740039   -4.933260
     34          1           0        2.571120   -2.740039   -7.052528
     35          1           0        0.080530   -2.740039   -7.052528
     36          1           0       -1.167936   -2.740039   -4.933260
     37          6           0       -1.325825    3.466871    3.671276
     38          6           0       -1.325825    2.013207    3.671276
     39          6           0       -1.325825    4.148772    4.933593
     40          6           0       -1.325825    1.331305    4.933593
     41          6           0       -1.325825    3.456085    6.106357
     42          6           0       -1.325825    2.023992    6.106357
     43          6           0       -1.325825    4.146430    2.463318
     44          6           0       -1.325825    3.467635    1.224029
     45          6           0       -1.325825    1.333648    2.463317
     46          6           0       -1.325825    2.012442    1.224029
     47          1           0       -1.325825    5.233801    4.933260
     48          1           0       -1.325825    5.232147    2.463929
     49          1           0       -1.325825    0.247932    2.463929
     50          1           0       -1.325825    0.246277    4.933260
     51          1           0       -1.325825    1.494743    7.052528
     52          1           0       -1.325825    3.985334    7.052528
     53          6           0       -1.325825    4.146925    0.000000
     54          6           0       -1.325825    3.467635   -1.224029
     55          6           0       -1.325825    1.333153    0.000000
     56          6           0       -1.325825    2.012442   -1.224029
     57          1           0       -1.325825    5.232548    0.000000
     58          1           0       -1.325825    0.247531    0.000000
     59          6           0       -1.325825    4.146430   -2.463318
     60          6           0       -1.325825    3.466871   -3.671276
     61          6           0       -1.325825    1.333648   -2.463317
     62          6           0       -1.325825    2.013207   -3.671276
     63          1           0       -1.325825    5.232147   -2.463929
     64          1           0       -1.325825    0.247932   -2.463929
     65          6           0       -1.325825    4.148772   -4.933593
     66          6           0       -1.325825    3.456085   -6.106357
     67          6           0       -1.325825    1.331305   -4.933593
     68          6           0       -1.325825    2.023992   -6.106357
     69          1           0       -1.325825    5.233801   -4.933260
     70          1           0       -1.325825    3.985334   -7.052528
     71          1           0       -1.325825    1.494743   -7.052528
     72          1           0       -1.325825    0.246277   -4.933260
 ---------------------------------------------------------------------
 Rotational constants (GHZ):           0.0854021           0.0563744           0.0357957
 Leave Link  202 at Wed Sep 27 16:58:30 2023, MaxMem=  3221225472 cpu:               0.6 elap:               0.0
 (Enter /home/center/opt/aarch64/apps/gaussian16/c01/g16/l122.exe)
 Counterpoise: doing full-system calculation.
 Leave Link  122 at Wed Sep 27 16:58:32 2023, MaxMem=  3221225472 cpu:               0.2 elap:               0.0
 (Enter /home/center/opt/aarch64/apps/gaussian16/c01/g16/l301.exe)
 Standard basis: 6-311G(d,p) (5D, 7F)
 Ernie: Thresh=  0.10000D-02 Tol=  0.10000D-05 Strict=F.
 There are   528 symmetry adapted cartesian basis functions of A'  symmetry.
 There are   476 symmetry adapted cartesian basis functions of A"  symmetry.
 There are   504 symmetry adapted basis functions of A'  symmetry.
 There are   456 symmetry adapted basis functions of A"  symmetry.
   960 basis functions,  1632 primitive gaussians,  1004 cartesian basis functions
   146 alpha electrons      146 beta electrons
       nuclear repulsion energy      4479.2800193235 Hartrees.
 IExCor=  402 DFT=T Ex+Corr=B3LYP ExCW=0 ScaHFX=  0.200000
 ScaDFX=  0.800000  0.720000  1.000000  0.810000 ScalE2=  1.000000  1.000000
 IRadAn=      5 IRanWt=     -1 IRanGd=            0 ICorTp=0 IEmpDi=131
 NAtoms=   72 NActive=   72 NUniq=   40 SFac= 3.24D+00 NAtFMM=   60 NAOKFM=T Big=F
 Integral buffers will be    131072 words long.
 Raffenetti 2 integral format.
 Two-electron integral symmetry is turned on.
 R6Disp:  Grimme-D3 Dispersion energy=       -0.0707974073 Hartrees.
 Nuclear repulsion after empirical dispersion term =     4479.2092219162 Hartrees.
 Leave Link  301 at Wed Sep 27 16:58:34 2023, MaxMem=  3221225472 cpu:               2.0 elap:               0.1
 (Enter /home/center/opt/aarch64/apps/gaussian16/c01/g16/l302.exe)
 NPDir=0 NMtPBC=     1 NCelOv=     1 NCel=       1 NClECP=     1 NCelD=      1
         NCelK=      1 NCelE2=     1 NClLst=     1 CellRange=     0.0.
 One-electron integrals computed using PRISM.
 One-electron integral symmetry used in STVInt
 NBasis=   960 RedAO= T EigKep=  3.99D-05  NBF=   504   456
 NBsUse=   960 1.00D-06 EigRej= -1.00D+00 NBFU=   504   456
 Precomputing XC quadrature grid using
 IXCGrd= 4 IRadAn=           5 IRanWt=          -1 IRanGd=           0 AccXCQ= 0.00D+00.
 Generated NRdTot=       0 NPtTot=           0 NUsed=           0 NTot=          32
 NSgBfM=   987   987   987   987   987 MxSgAt=    72 MxSgA2=    72.
 Leave Link  302 at Wed Sep 27 16:58:38 2023, MaxMem=  3221225472 cpu:              63.6 elap:               1.9
 (Enter /home/center/opt/aarch64/apps/gaussian16/c01/g16/l303.exe)
 DipDrv:  MaxL=1.
 Leave Link  303 at Wed Sep 27 16:58:41 2023, MaxMem=  3221225472 cpu:              14.4 elap:               0.5
 (Enter /home/center/opt/aarch64/apps/gaussian16/c01/g16/l401.exe)
 ExpMin= 1.03D-01 ExpMax= 4.56D+03 ExpMxC= 6.82D+02 IAcc=3 IRadAn=         5 AccDes= 0.00D+00
 Harris functional with IExCor=  402 and IRadAn=       5 diagonalized for initial guess.
 HarFok:  IExCor=  402 AccDes= 0.00D+00 IRadAn=         5 IDoV= 1 UseB2=F ITyADJ=14
 ICtDFT=  3500011 ScaDFX=  1.000000  1.000000  1.000000  1.000000
 FoFCou: FMM=F IPFlag=           0 FMFlag=      100000 FMFlg1=        2000
         NFxFlg=           0 DoJE=T BraDBF=F KetDBF=T FulRan=T
         wScrn=  0.000000 ICntrl=       500 IOpCl=  0 I1Cent=   200000004 NGrid=           0
         NMat0=    1 NMatS0=      1 NMatT0=    0 NMatD0=    1 NMtDS0=    0 NMtDT0=    0
 Petite list used in FoFCou.
 Harris En= -1694.13455309434    
 JPrj=0 DoOrth=F DoCkMO=F.
 Initial guess orbital symmetries:
       Occupied  (A") (A') (A") (A') (A') (A") (A') (A") (A") (A')
                 (A") (A') (A") (A') (A") (A') (A") (A') (A') (A")
                 (A") (A') (A") (A') (A') (A') (A') (A') (A") (A")
                 (A') (A') (A") (A") (A') (A') (A") (A') (A") (A')
                 (A') (A") (A') (A") (A') (A') (A") (A") (A') (A')
                 (A") (A") (A') (A') (A') (A') (A") (A") (A') (A')
                 (A") (A") (A") (A") (A') (A') (A') (A') (A") (A")
                 (A") (A") (A') (A') (A") (A") (A') (A') (A') (A')
                 (A') (A') (A") (A") (A") (A") (A") (A') (A") (A')
                 (A') (A') (A") (A") (A') (A') (A') (A') (A") (A")
                 (A') (A') (A") (A") (A") (A") (A') (A') (A') (A')
                 (A") (A") (A') (A') (A") (A") (A') (A') (A") (A")
                 (A") (A") (A') (A') (A') (A') (A") (A") (A') (A')
                 (A") (A") (A') (A') (A") (A") (A') (A') (A') (A')
                 (A") (A") (A") (A") (A') (A')
       Virtual   (A') (A') (A") (A") (A") (A") (A') (A') (A') (A')
                 (A") (A") (A') (A') (A") (A") (A') (A") (A') (A')
                 (A') (A') (A") (A") (A') (A') (A") (A") (A') (A')
                 (A") (A') (A") (A") (A") (A') (A") (A') (A') (A')
                 (A") (A') (A") (A') (A") (A') (A') (A") (A') (A')
                 (A") (A') (A') (A") (A') (A') (A') (A") (A") (A")
                 (A') (A") (A") (A") (A') (A') (A") (A") (A") (A')
                 (A') (A") (A') (A') (A") (A') (A") (A") (A') (A")
                 (A') (A') (A') (A") (A') (A') (A") (A') (A") (A")
                 (A') (A') (A") (A') (A") (A') (A') (A") (A") (A")
                 (A") (A") (A') (A') (A") (A') (A') (A') (A') (A")
                 (A') (A') (A") (A') (A') (A") (A") (A') (A') (A")
                 (A') (A") (A') (A") (A") (A") (A') (A') (A") (A')
                 (A") (A") (A") (A") (A') (A") (A') (A') (A") (A')
                 (A") (A') (A') (A') (A') (A") (A') (A') (A") (A')
                 (A') (A') (A') (A") (A") (A") (A') (A') (A") (A")
                 (A') (A") (A") (A") (A') (A') (A") (A') (A") (A')
                 (A") (A') (A") (A') (A") (A') (A') (A") (A') (A")
                 (A") (A') (A') (A') (A") (A") (A') (A') (A') (A")
                 (A') (A') (A") (A") (A') (A') (A") (A') (A") (A")
                 (A") (A') (A') (A") (A') (A') (A") (A') (A") (A')
                 (A') (A") (A") (A') (A") (A') (A") (A") (A') (A")
                 (A') (A") (A") (A') (A") (A") (A') (A') (A') (A')
                 (A") (A') (A") (A') (A') (A") (A') (A") (A') (A")
                 (A") (A") (A') (A') (A') (A") (A") (A') (A') (A')
                 (A") (A') (A") (A") (A') (A") (A') (A") (A") (A")
                 (A') (A') (A') (A') (A") (A") (A") (A') (A') (A')
                 (A") (A") (A') (A") (A") (A") (A') (A') (A") (A')
                 (A') (A") (A") (A') (A') (A') (A") (A") (A') (A')
                 (A") (A") (A') (A') (A') (A") (A") (A") (A') (A")
                 (A") (A") (A") (A') (A') (A') (A") (A') (A') (A')
                 (A') (A") (A") (A') (A") (A") (A") (A") (A') (A')
                 (A') (A') (A") (A') (A') (A') (A") (A") (A') (A")
                 (A") (A") (A') (A") (A') (A") (A') (A') (A") (A')
                 (A') (A") (A') (A") (A") (A') (A') (A") (A") (A')
                 (A') (A') (A") (A") (A') (A') (A") (A') (A') (A')
                 (A") (A') (A') (A') (A") (A") (A") (A") (A") (A")
                 (A") (A") (A") (A') (A') (A') (A") (A') (A') (A')
                 (A") (A') (A") (A') (A') (A') (A') (A") (A') (A")
                 (A') (A") (A') (A") (A') (A') (A") (A") (A") (A")
                 (A') (A') (A") (A') (A") (A') (A') (A") (A') (A")
                 (A') (A") (A') (A') (A") (A') (A") (A") (A') (A')
                 (A') (A') (A') (A') (A") (A') (A") (A") (A') (A")
                 (A") (A") (A") (A') (A") (A') (A") (A') (A') (A")
                 (A") (A") (A') (A") (A') (A") (A') (A") (A') (A")
                 (A') (A') (A') (A') (A") (A") (A') (A") (A') (A")
                 (A") (A') (A') (A") (A') (A') (A") (A") (A") (A')
                 (A") (A') (A") (A") (A') (A") (A") (A') (A') (A')
                 (A") (A') (A') (A') (A") (A') (A") (A") (A") (A")
                 (A') (A') (A") (A") (A") (A") (A") (A") (A') (A')
                 (A') (A") (A') (A") (A') (A') (A') (A') (A") (A')
                 (A") (A') (A') (A') (A") (A") (A") (A") (A') (A')
                 (A") (A') (A") (A') (A") (A") (A') (A') (A") (A')
                 (A") (A') (A') (A') (A") (A") (A') (A") (A') (A")
                 (A") (A") (A') (A') (A') (A') (A") (A") (A") (A")
                 (A") (A') (A") (A') (A") (A') (A") (A') (A') (A')
                 (A') (A") (A') (A") (A') (A") (A") (A') (A') (A')
                 (A") (A") (A") (A") (A') (A') (A") (A') (A") (A')
                 (A') (A') (A') (A') (A") (A") (A") (A') (A') (A')
                 (A') (A') (A") (A") (A') (A') (A") (A') (A") (A")
                 (A") (A') (A") (A') (A') (A") (A') (A") (A") (A")
                 (A') (A') (A') (A") (A") (A') (A') (A') (A") (A")
                 (A") (A") (A') (A") (A') (A') (A') (A") (A') (A")
                 (A') (A') (A') (A") (A") (A') (A') (A') (A") (A')
                 (A") (A") (A") (A") (A") (A') (A") (A') (A") (A')
                 (A') (A') (A') (A') (A") (A') (A') (A") (A') (A")
                 (A') (A") (A") (A") (A') (A") (A') (A') (A') (A")
                 (A') (A") (A') (A") (A') (A") (A") (A") (A') (A')
                 (A") (A") (A') (A') (A') (A") (A') (A") (A") (A")
                 (A') (A') (A') (A") (A') (A") (A') (A') (A") (A")
                 (A') (A') (A") (A") (A') (A') (A") (A") (A') (A")
                 (A') (A") (A") (A") (A') (A') (A') (A') (A") (A")
                 (A') (A') (A") (A") (A') (A') (A') (A') (A") (A")
                 (A') (A") (A') (A") (A") (A') (A") (A') (A') (A')
                 (A") (A") (A') (A') (A") (A") (A') (A') (A') (A')
                 (A") (A') (A") (A') (A") (A") (A') (A') (A") (A")
                 (A") (A") (A') (A') (A") (A") (A') (A") (A') (A")
                 (A') (A') (A") (A") (A') (A') (A') (A') (A") (A")
                 (A") (A") (A') (A') (A") (A") (A') (A') (A') (A')
                 (A") (A") (A") (A") (A') (A') (A') (A') (A") (A")
                 (A') (A') (A") (A") (A') (A') (A") (A") (A') (A')
                 (A') (A") (A') (A")
 The electronic state of the initial guess is 1-A'.
 Leave Link  401 at Wed Sep 27 16:58:46 2023, MaxMem=  3221225472 cpu:             102.0 elap:               2.7
 (Enter /home/center/opt/aarch64/apps/gaussian16/c01/g16/l502.exe)
 Integral symmetry usage will be decided dynamically.
 Closed shell SCF:
 Using DIIS extrapolation, IDIIS=  1040.
 NGot=  3221225472 LenX=  3219153746 LenY=  3218144726
 Requested convergence on RMS density matrix=1.00D-08 within 128 cycles.
 Requested convergence on MAX density matrix=1.00D-06.
 Requested convergence on             energy=1.00D-06.
 No special actions if energy rises.
 Fock matrices will be formed incrementally for  20 cycles.
 Integral accuracy reduced to 1.0D-05 until final iterations.

 Cycle   1  Pass 0  IDiag  1:
 FoFJK:  IHMeth= 1 ICntrl=       0 DoSepK=F KAlg= 0 I1Cent=           0 FoldK=F
 IRaf= 530000000 NMat=       1 IRICut=       1 DoRegI=T DoRafI=F ISym2E= 1 IDoP0=0 IntGTp=1.
 FoFCou: FMM=F IPFlag=           0 FMFlag=      100000 FMFlg1=        2000
         NFxFlg=           0 DoJE=F BraDBF=F KetDBF=F FulRan=T
         wScrn=  0.000000 ICntrl=         0 IOpCl=  0 I1Cent=           0 NGrid=           0
         NMat0=    1 NMatS0=      1 NMatT0=    0 NMatD0=    1 NMtDS0=    0 NMtDT0=    0
 Petite list used in FoFCou.
 E= -1693.15225249685    
 DIIS: error= 4.46D-02 at cycle   1 NSaved=   1.
 NSaved= 1 IEnMin= 1 EnMin= -1693.15225249685     IErMin= 1 ErrMin= 4.46D-02
 ErrMax= 4.46D-02  0.00D+00 EMaxC= 1.00D-01 BMatC= 9.07D-01 BMatP= 9.07D-01
 IDIUse=3 WtCom= 5.54D-01 WtEn= 4.46D-01
 Coeff-Com:  0.100D+01
 Coeff-En:   0.100D+01
 Coeff:      0.100D+01
 Gap=     0.077 Goal=   None    Shift=    0.000
 GapD=    0.077 DampG=0.500 DampE=0.500 DampFc=0.2500 IDamp=-1.
 Damping current iteration by 2.50D-01
 RMSDP=1.79D-03 MaxDP=8.42D-02              OVMax= 1.62D-01

 Cycle   2  Pass 0  IDiag  1:
 RMSU=  4.33D-04    CP:  9.82D-01
 E= -1693.46561561932     Delta-E=       -0.313363122471 Rises=F Damp=T
 DIIS: error= 2.58D-02 at cycle   2 NSaved=   2.
 NSaved= 2 IEnMin= 2 EnMin= -1693.46561561932     IErMin= 2 ErrMin= 2.58D-02
 ErrMax= 2.58D-02  0.00D+00 EMaxC= 1.00D-01 BMatC= 2.99D-01 BMatP= 9.07D-01
 IDIUse=3 WtCom= 7.42D-01 WtEn= 2.58D-01
 Coeff-Com: -0.119D+01 0.219D+01
 Coeff-En:   0.000D+00 0.100D+01
 Coeff:     -0.885D+00 0.188D+01
 Gap=     0.071 Goal=   None    Shift=    0.000
 RMSDP=6.73D-04 MaxDP=3.32D-02 DE=-3.13D-01 OVMax= 8.45D-02

 Cycle   3  Pass 0  IDiag  1:
 RMSU=  4.56D-04    CP:  9.58D-01  2.09D+00
 E= -1694.03769593446     Delta-E=       -0.572080315140 Rises=F Damp=F
 DIIS: error= 5.43D-03 at cycle   3 NSaved=   3.
 NSaved= 3 IEnMin= 3 EnMin= -1694.03769593446     IErMin= 3 ErrMin= 5.43D-03
 ErrMax= 5.43D-03  0.00D+00 EMaxC= 1.00D-01 BMatC= 1.18D-02 BMatP= 2.99D-01
 IDIUse=3 WtCom= 9.46D-01 WtEn= 5.43D-02
 Coeff-Com: -0.256D+00 0.525D+00 0.731D+00
 Coeff-En:   0.000D+00 0.000D+00 0.100D+01
 Coeff:     -0.242D+00 0.497D+00 0.746D+00
 Gap=     0.074 Goal=   None    Shift=    0.000
 RMSDP=2.31D-04 MaxDP=1.31D-02 DE=-5.72D-01 OVMax= 9.05D-02

 Cycle   4  Pass 0  IDiag  1:
 RMSU=  1.88D-04    CP:  9.59D-01  2.04D+00  7.13D-01
 E= -1694.03413852599     Delta-E=        0.003557408477 Rises=F Damp=F
 DIIS: error= 7.77D-03 at cycle   4 NSaved=   4.
 NSaved= 4 IEnMin= 3 EnMin= -1694.03769593446     IErMin= 3 ErrMin= 5.43D-03
 ErrMax= 7.77D-03  0.00D+00 EMaxC= 1.00D-01 BMatC= 1.32D-02 BMatP= 1.18D-02
 IDIUse=3 WtCom= 1.02D-01 WtEn= 8.98D-01
 Coeff-Com: -0.471D-01 0.120D+00 0.516D+00 0.411D+00
 Coeff-En:   0.000D+00 0.000D+00 0.554D+00 0.446D+00
 Coeff:     -0.480D-02 0.123D-01 0.550D+00 0.443D+00
 Gap=     0.072 Goal=   None    Shift=    0.000
 RMSDP=1.42D-04 MaxDP=9.74D-03 DE= 3.56D-03 OVMax= 8.22D-02

 Cycle   5  Pass 0  IDiag  1:
 RMSU=  8.15D-05    CP:  9.59D-01  2.03D+00  7.75D-01  4.01D-01
 E= -1694.04840789633     Delta-E=       -0.014269370343 Rises=F Damp=F
 DIIS: error= 2.28D-03 at cycle   5 NSaved=   5.
 NSaved= 5 IEnMin= 5 EnMin= -1694.04840789633     IErMin= 5 ErrMin= 2.28D-03
 ErrMax= 2.28D-03  0.00D+00 EMaxC= 1.00D-01 BMatC= 1.23D-03 BMatP= 1.18D-02
 IDIUse=3 WtCom= 9.77D-01 WtEn= 2.28D-02
 Coeff-Com: -0.172D-01 0.381D-01 0.257D+00 0.263D+00 0.459D+00
 Coeff-En:   0.000D+00 0.000D+00 0.000D+00 0.617D-01 0.938D+00
 Coeff:     -0.168D-01 0.372D-01 0.251D+00 0.258D+00 0.470D+00
 Gap=     0.072 Goal=   None    Shift=    0.000
 RMSDP=5.27D-05 MaxDP=3.77D-03 DE=-1.43D-02 OVMax= 3.64D-02

 Cycle   6  Pass 0  IDiag  1:
 RMSU=  2.61D-05    CP:  9.59D-01  2.04D+00  7.90D-01  5.14D-01  5.18D-01
 E= -1694.04955031904     Delta-E=       -0.001142422716 Rises=F Damp=F
 DIIS: error= 1.37D-03 at cycle   6 NSaved=   6.
 NSaved= 6 IEnMin= 6 EnMin= -1694.04955031904     IErMin= 6 ErrMin= 1.37D-03
 ErrMax= 1.37D-03  0.00D+00 EMaxC= 1.00D-01 BMatC= 2.87D-04 BMatP= 1.23D-03
 IDIUse=3 WtCom= 9.86D-01 WtEn= 1.37D-02
 Coeff-Com: -0.404D-02 0.658D-02 0.103D+00 0.124D+00 0.347D+00 0.423D+00
 Coeff-En:   0.000D+00 0.000D+00 0.000D+00 0.000D+00 0.211D+00 0.789D+00
 Coeff:     -0.398D-02 0.649D-02 0.102D+00 0.122D+00 0.345D+00 0.428D+00
 Gap=     0.072 Goal=   None    Shift=    0.000
 RMSDP=2.15D-05 MaxDP=1.71D-03 DE=-1.14D-03 OVMax= 1.52D-02

 Cycle   7  Pass 0  IDiag  1:
 RMSU=  8.51D-06    CP:  9.59D-01  2.04D+00  7.94D-01  4.96D-01  6.07D-01
                    CP:  3.16D-01
 E= -1694.04986152440     Delta-E=       -0.000311205358 Rises=F Damp=F
 DIIS: error= 3.70D-04 at cycle   7 NSaved=   7.
 NSaved= 7 IEnMin= 7 EnMin= -1694.04986152440     IErMin= 7 ErrMin= 3.70D-04
 ErrMax= 3.70D-04  0.00D+00 EMaxC= 1.00D-01 BMatC= 2.79D-05 BMatP= 2.87D-04
 IDIUse=3 WtCom= 9.96D-01 WtEn= 3.70D-03
 Coeff-Com: -0.936D-03 0.891D-03 0.551D-01 0.685D-01 0.211D+00 0.304D+00
 Coeff-Com:  0.361D+00
 Coeff-En:   0.000D+00 0.000D+00 0.000D+00 0.000D+00 0.000D+00 0.667D-01
 Coeff-En:   0.933D+00
 Coeff:     -0.933D-03 0.888D-03 0.549D-01 0.683D-01 0.211D+00 0.303D+00
 Coeff:      0.364D+00
 Gap=     0.072 Goal=   None    Shift=    0.000
 RMSDP=6.42D-06 MaxDP=3.47D-04 DE=-3.11D-04 OVMax= 3.18D-03

 Initial convergence to 1.0D-05 achieved.  Increase integral accuracy.
 Cycle   8  Pass 1  IDiag  1:
 E= -1694.04955571760     Delta-E=        0.000305806799 Rises=F Damp=F
 DIIS: error= 5.64D-04 at cycle   1 NSaved=   1.
 NSaved= 1 IEnMin= 1 EnMin= -1694.04955571760     IErMin= 1 ErrMin= 5.64D-04
 ErrMax= 5.64D-04  0.00D+00 EMaxC= 1.00D-01 BMatC= 3.62D-05 BMatP= 3.62D-05
 IDIUse=3 WtCom= 9.94D-01 WtEn= 5.64D-03
 Coeff-Com:  0.100D+01
 Coeff-En:   0.100D+01
 Coeff:      0.100D+01
 Gap=     0.072 Goal=   None    Shift=    0.000
 RMSDP=6.42D-06 MaxDP=3.47D-04 DE= 3.06D-04 OVMax= 2.71D-03

 Cycle   9  Pass 1  IDiag  1:
 RMSU=  2.73D-04    CP:  9.98D-01
 E= -1694.04958596649     Delta-E=       -0.000030248884 Rises=F Damp=F
 DIIS: error= 2.04D-04 at cycle   2 NSaved=   2.
 NSaved= 2 IEnMin= 2 EnMin= -1694.04958596649     IErMin= 2 ErrMin= 2.04D-04
 ErrMax= 2.04D-04  0.00D+00 EMaxC= 1.00D-01 BMatC= 5.32D-06 BMatP= 3.62D-05
 IDIUse=3 WtCom= 9.98D-01 WtEn= 2.04D-03
 Coeff-Com:  0.156D+00 0.844D+00
 Coeff-En:   0.000D+00 0.100D+01
 Coeff:      0.156D+00 0.844D+00
 Gap=     0.072 Goal=   None    Shift=    0.000
 RMSDP=8.48D-06 MaxDP=6.80D-04 DE=-3.02D-05 OVMax= 6.17D-03

 Cycle  10  Pass 1  IDiag  1:
 RMSU=  8.21D-06    CP:  9.98D-01  1.01D+00
 E= -1694.04955896409     Delta-E=        0.000027002401 Rises=F Damp=F
 DIIS: error= 4.85D-04 at cycle   3 NSaved=   3.
 NSaved= 3 IEnMin= 2 EnMin= -1694.04958596649     IErMin= 2 ErrMin= 2.04D-04
 ErrMax= 4.85D-04  0.00D+00 EMaxC= 1.00D-01 BMatC= 2.65D-05 BMatP= 5.32D-06
 IDIUse=3 WtCom= 3.12D-01 WtEn= 6.88D-01
 Coeff-Com: -0.112D-02 0.692D+00 0.309D+00
 Coeff-En:   0.000D+00 0.761D+00 0.239D+00
 Coeff:     -0.351D-03 0.740D+00 0.261D+00
 Gap=     0.072 Goal=   None    Shift=    0.000
 RMSDP=4.76D-06 MaxDP=3.74D-04 DE= 2.70D-05 OVMax= 3.59D-03

 Cycle  11  Pass 1  IDiag  1:
 RMSU=  8.46D-07    CP:  9.98D-01  1.01D+00  4.36D-01
 E= -1694.04959139603     Delta-E=       -0.000032431943 Rises=F Damp=F
 DIIS: error= 7.45D-05 at cycle   4 NSaved=   4.
 NSaved= 4 IEnMin= 4 EnMin= -1694.04959139603     IErMin= 4 ErrMin= 7.45D-05
 ErrMax= 7.45D-05  0.00D+00 EMaxC= 1.00D-01 BMatC= 1.01D-06 BMatP= 5.32D-06
 IDIUse=1 WtCom= 1.00D+00 WtEn= 0.00D+00
 Coeff-Com: -0.382D-02 0.448D+00 0.121D+00 0.435D+00
 Coeff:     -0.382D-02 0.448D+00 0.121D+00 0.435D+00
 Gap=     0.072 Goal=   None    Shift=    0.000
 RMSDP=1.08D-06 MaxDP=9.07D-05 DE=-3.24D-05 OVMax= 7.50D-04

 Cycle  12  Pass 1  IDiag  1:
 RMSU=  3.61D-07    CP:  9.98D-01  1.01D+00  3.15D-01  7.25D-01
 E= -1694.04959257968     Delta-E=       -0.000001183647 Rises=F Damp=F
 DIIS: error= 5.66D-06 at cycle   5 NSaved=   5.
 NSaved= 5 IEnMin= 5 EnMin= -1694.04959257968     IErMin= 5 ErrMin= 5.66D-06
 ErrMax= 5.66D-06  0.00D+00 EMaxC= 1.00D-01 BMatC= 7.25D-09 BMatP= 1.01D-06
 IDIUse=1 WtCom= 1.00D+00 WtEn= 0.00D+00
 Coeff-Com: -0.248D-02 0.277D+00 0.720D-01 0.286D+00 0.367D+00
 Coeff:     -0.248D-02 0.277D+00 0.720D-01 0.286D+00 0.367D+00
 Gap=     0.072 Goal=   None    Shift=    0.000
 RMSDP=1.21D-07 MaxDP=1.04D-05 DE=-1.18D-06 OVMax= 8.41D-05

 Cycle  13  Pass 1  IDiag  1:
 RMSU=  1.05D-07    CP:  9.98D-01  1.01D+00  3.14D-01  7.48D-01  8.48D-01
 E= -1694.04959258793     Delta-E=       -0.000000008251 Rises=F Damp=F
 DIIS: error= 1.99D-06 at cycle   6 NSaved=   6.
 NSaved= 6 IEnMin= 6 EnMin= -1694.04959258793     IErMin= 6 ErrMin= 1.99D-06
 ErrMax= 1.99D-06  0.00D+00 EMaxC= 1.00D-01 BMatC= 7.50D-10 BMatP= 7.25D-09
 IDIUse=1 WtCom= 1.00D+00 WtEn= 0.00D+00
 Coeff-Com: -0.990D-03 0.107D+00 0.267D-01 0.115D+00 0.248D+00 0.504D+00
 Coeff:     -0.990D-03 0.107D+00 0.267D-01 0.115D+00 0.248D+00 0.504D+00
 Gap=     0.072 Goal=   None    Shift=    0.000
 RMSDP=3.63D-08 MaxDP=2.27D-06 DE=-8.25D-09 OVMax= 2.35D-05

 Cycle  14  Pass 1  IDiag  1:
 RMSU=  2.70D-08    CP:  9.98D-01  1.01D+00  3.14D-01  7.43D-01  8.83D-01
                    CP:  8.13D-01
 E= -1694.04959258878     Delta-E=       -0.000000000854 Rises=F Damp=F
 DIIS: error= 3.57D-07 at cycle   7 NSaved=   7.
 NSaved= 7 IEnMin= 7 EnMin= -1694.04959258878     IErMin= 7 ErrMin= 3.57D-07
 ErrMax= 3.57D-07  0.00D+00 EMaxC= 1.00D-01 BMatC= 4.78D-11 BMatP= 7.50D-10
 IDIUse=1 WtCom= 1.00D+00 WtEn= 0.00D+00
 Coeff-Com: -0.412D-03 0.435D-01 0.108D-01 0.478D-01 0.114D+00 0.288D+00
 Coeff-Com:  0.496D+00
 Coeff:     -0.412D-03 0.435D-01 0.108D-01 0.478D-01 0.114D+00 0.288D+00
 Coeff:      0.496D+00
 Gap=     0.072 Goal=   None    Shift=    0.000
 RMSDP=1.05D-08 MaxDP=4.21D-07 DE=-8.54D-10 OVMax= 3.99D-06

 Cycle  15  Pass 1  IDiag  1:
 RMSU=  6.54D-09    CP:  9.98D-01  1.01D+00  3.14D-01  7.45D-01  8.85D-01
                    CP:  8.30D-01  7.14D-01
 E= -1694.04959258882     Delta-E=       -0.000000000035 Rises=F Damp=F
 DIIS: error= 2.30D-07 at cycle   8 NSaved=   8.
 NSaved= 8 IEnMin= 8 EnMin= -1694.04959258882     IErMin= 8 ErrMin= 2.30D-07
 ErrMax= 2.30D-07  0.00D+00 EMaxC= 1.00D-01 BMatC= 1.19D-11 BMatP= 4.78D-11
 IDIUse=1 WtCom= 1.00D+00 WtEn= 0.00D+00
 Coeff-Com: -0.226D-04 0.186D-02 0.325D-03 0.295D-02 0.153D-01 0.844D-01
 Coeff-Com:  0.342D+00 0.553D+00
 Coeff:     -0.226D-04 0.186D-02 0.325D-03 0.295D-02 0.153D-01 0.844D-01
 Coeff:      0.342D+00 0.553D+00
 Gap=     0.072 Goal=   None    Shift=    0.000
 RMSDP=4.47D-09 MaxDP=1.76D-07 DE=-3.55D-11 OVMax= 1.63D-06

 SCF Done:  E(RB3LYP) =  -1694.04959259     A.U. after   15 cycles
            NFock= 15  Conv=0.45D-08     -V/T= 2.0044
 KE= 1.686672708820D+03 PE=-1.288873598039D+04 EE= 5.028804457069D+03
 Leave Link  502 at Wed Sep 27 17:00:23 2023, MaxMem=  3221225472 cpu:            3429.7 elap:              94.5
 (Enter /home/center/opt/aarch64/apps/gaussian16/c01/g16/l601.exe)
 Copying SCF densities to generalized density rwf, IOpCl= 0 IROHF=0.

 **********************************************************************

            Population analysis using the SCF Density.

 **********************************************************************

 Orbital symmetries:
       Occupied  (A") (A') (A') (A") (A") (A') (A") (A') (A") (A')
                 (A') (A") (A") (A') (A') (A') (A") (A') (A") (A')
                 (A') (A") (A") (A') (A") (A') (A") (A') (A") (A')
                 (A") (A') (A') (A") (A') (A') (A") (A') (A") (A')
                 (A") (A') (A") (A') (A') (A') (A") (A") (A') (A')
                 (A") (A") (A') (A') (A') (A") (A') (A") (A') (A')
                 (A") (A") (A") (A") (A') (A') (A') (A') (A") (A")
                 (A") (A") (A') (A') (A") (A') (A") (A') (A') (A')
                 (A') (A") (A") (A') (A") (A") (A') (A') (A") (A")
                 (A') (A') (A') (A") (A") (A') (A") (A") (A') (A')
                 (A') (A") (A') (A') (A") (A') (A') (A') (A') (A")
                 (A') (A") (A") (A") (A") (A") (A") (A") (A') (A')
                 (A') (A') (A') (A') (A") (A") (A") (A') (A") (A")
                 (A') (A") (A') (A') (A") (A") (A') (A') (A') (A')
                 (A") (A") (A") (A") (A') (A')
       Virtual   (A') (A') (A") (A") (A") (A") (A') (A') (A") (A')
                 (A') (A') (A") (A') (A") (A') (A') (A') (A") (A")
                 (A') (A') (A") (A') (A") (A") (A') (A") (A') (A")
                 (A") (A") (A') (A') (A') (A") (A") (A') (A") (A')
                 (A') (A') (A') (A") (A') (A") (A") (A") (A") (A')
                 (A') (A') (A') (A') (A') (A') (A") (A') (A') (A")
                 (A") (A") (A") (A") (A') (A') (A") (A") (A') (A')
                 (A") (A') (A") (A') (A") (A') (A") (A") (A') (A")
                 (A') (A') (A') (A') (A') (A") (A") (A') (A') (A")
                 (A') (A') (A") (A') (A") (A") (A') (A") (A") (A')
                 (A") (A') (A") (A') (A") (A') (A') (A') (A") (A")
                 (A") (A") (A") (A') (A') (A') (A") (A") (A') (A')
                 (A") (A') (A') (A') (A') (A') (A") (A') (A") (A')
                 (A') (A") (A") (A') (A') (A') (A") (A') (A") (A")
                 (A') (A") (A') (A') (A") (A') (A') (A") (A") (A')
                 (A") (A') (A") (A") (A") (A") (A') (A') (A') (A")
                 (A") (A') (A') (A') (A") (A') (A") (A") (A') (A")
                 (A') (A") (A") (A') (A') (A') (A') (A') (A') (A")
                 (A") (A') (A") (A") (A") (A') (A') (A") (A") (A')
                 (A") (A") (A') (A") (A') (A') (A") (A') (A") (A')
                 (A') (A") (A') (A") (A') (A") (A') (A") (A') (A')
                 (A") (A') (A") (A') (A') (A") (A") (A') (A") (A')
                 (A") (A') (A") (A') (A") (A") (A") (A') (A') (A")
                 (A') (A') (A") (A') (A') (A") (A') (A") (A") (A')
                 (A") (A") (A') (A') (A") (A') (A') (A") (A') (A')
                 (A") (A") (A') (A") (A') (A") (A') (A") (A') (A")
                 (A") (A') (A") (A') (A') (A') (A") (A') (A') (A")
                 (A") (A') (A") (A") (A") (A') (A') (A") (A") (A')
                 (A') (A") (A') (A') (A") (A") (A') (A") (A") (A')
                 (A') (A') (A") (A") (A") (A') (A') (A") (A') (A')
                 (A") (A") (A") (A') (A") (A') (A") (A') (A') (A')
                 (A') (A") (A') (A') (A") (A") (A') (A") (A") (A")
                 (A') (A') (A") (A') (A') (A") (A') (A') (A") (A")
                 (A") (A") (A') (A") (A") (A') (A') (A') (A") (A')
                 (A") (A') (A') (A') (A") (A") (A') (A') (A') (A")
                 (A') (A") (A") (A") (A') (A') (A') (A') (A') (A')
                 (A") (A") (A') (A") (A') (A") (A") (A") (A") (A")
                 (A') (A") (A") (A') (A") (A') (A") (A') (A') (A')
                 (A") (A") (A') (A') (A') (A") (A") (A') (A') (A')
                 (A') (A') (A") (A") (A') (A") (A') (A") (A') (A")
                 (A') (A") (A") (A') (A") (A') (A') (A') (A") (A")
                 (A') (A') (A") (A') (A') (A") (A") (A") (A') (A')
                 (A") (A') (A') (A') (A') (A") (A') (A") (A') (A")
                 (A") (A") (A") (A') (A") (A') (A') (A") (A') (A')
                 (A") (A") (A") (A') (A") (A") (A') (A') (A") (A")
                 (A') (A') (A') (A") (A") (A') (A') (A") (A") (A')
                 (A") (A") (A') (A') (A') (A") (A') (A") (A') (A')
                 (A") (A") (A') (A") (A") (A') (A") (A') (A") (A')
                 (A") (A') (A") (A') (A') (A') (A") (A") (A") (A')
                 (A") (A") (A') (A") (A") (A") (A") (A") (A') (A')
                 (A") (A') (A') (A') (A") (A') (A') (A') (A") (A")
                 (A') (A') (A') (A') (A") (A") (A') (A") (A') (A")
                 (A") (A") (A') (A") (A') (A") (A') (A') (A') (A")
                 (A") (A') (A") (A") (A") (A') (A") (A') (A') (A')
                 (A") (A") (A') (A') (A") (A') (A") (A') (A") (A")
                 (A") (A') (A") (A') (A") (A') (A") (A') (A') (A')
                 (A") (A') (A") (A') (A') (A") (A") (A') (A") (A")
                 (A') (A') (A') (A') (A') (A") (A') (A") (A') (A')
                 (A") (A") (A") (A') (A") (A') (A') (A") (A") (A')
                 (A") (A') (A") (A") (A') (A") (A') (A") (A') (A')
                 (A") (A') (A') (A") (A') (A") (A') (A') (A') (A")
                 (A') (A") (A') (A") (A') (A') (A") (A') (A') (A")
                 (A") (A') (A") (A') (A') (A") (A') (A") (A") (A")
                 (A') (A") (A") (A') (A') (A') (A') (A") (A') (A")
                 (A') (A") (A") (A') (A") (A") (A') (A") (A') (A')
                 (A") (A') (A') (A") (A') (A') (A') (A") (A') (A")
                 (A") (A") (A') (A') (A") (A") (A') (A') (A') (A")
                 (A') (A") (A') (A") (A") (A') (A") (A") (A') (A')
                 (A') (A') (A") (A") (A') (A") (A') (A") (A") (A")
                 (A') (A') (A") (A') (A') (A') (A") (A') (A") (A")
                 (A') (A') (A") (A") (A') (A") (A') (A") (A') (A")
                 (A') (A") (A") (A") (A') (A') (A') (A') (A") (A")
                 (A') (A') (A") (A') (A") (A') (A') (A') (A") (A")
                 (A") (A') (A") (A') (A") (A') (A") (A') (A') (A")
                 (A') (A") (A') (A") (A') (A') (A") (A') (A') (A')
                 (A") (A') (A") (A') (A") (A") (A') (A') (A") (A")
                 (A") (A') (A") (A") (A') (A") (A') (A") (A') (A")
                 (A') (A') (A") (A") (A') (A') (A') (A') (A") (A")
                 (A") (A") (A') (A') (A") (A') (A") (A') (A') (A')
                 (A") (A") (A") (A") (A') (A') (A') (A") (A') (A")
                 (A') (A') (A") (A') (A") (A') (A") (A') (A") (A')
                 (A') (A") (A') (A")
 The electronic state is 1-A'.
 Alpha  occ. eigenvalues --  -10.19338 -10.19338 -10.19261 -10.19261 -10.19254
 Alpha  occ. eigenvalues --  -10.19254 -10.19160 -10.19160 -10.18418 -10.18418
 Alpha  occ. eigenvalues --  -10.18364 -10.18364 -10.18357 -10.18357 -10.18351
 Alpha  occ. eigenvalues --  -10.18338 -10.18307 -10.18307 -10.18297 -10.18297
 Alpha  occ. eigenvalues --  -10.18293 -10.18293 -10.18272 -10.18272 -10.18206
 Alpha  occ. eigenvalues --  -10.18206 -10.18181 -10.18181 -10.18091 -10.18091
 Alpha  occ. eigenvalues --  -10.17439 -10.17438 -10.17435 -10.17417 -10.17417
 Alpha  occ. eigenvalues --  -10.17405 -10.17378 -10.17378 -10.17373 -10.17373
 Alpha  occ. eigenvalues --  -10.17355 -10.17354 -10.17293 -10.17293  -0.89716
 Alpha  occ. eigenvalues --   -0.88828  -0.88233  -0.87369  -0.85913  -0.85060
 Alpha  occ. eigenvalues --   -0.82777  -0.81929  -0.80205  -0.79299  -0.78882
 Alpha  occ. eigenvalues --   -0.78690  -0.78037  -0.77810  -0.76362  -0.75494
 Alpha  occ. eigenvalues --   -0.74617  -0.73766  -0.73271  -0.72407  -0.69569
 Alpha  occ. eigenvalues --   -0.68696  -0.67707  -0.66855  -0.63097  -0.62729
 Alpha  occ. eigenvalues --   -0.62234  -0.61890  -0.61499  -0.60576  -0.60347
 Alpha  occ. eigenvalues --   -0.59672  -0.59445  -0.58798  -0.58051  -0.57205
 Alpha  occ. eigenvalues --   -0.53073  -0.52946  -0.52654  -0.52222  -0.52069
 Alpha  occ. eigenvalues --   -0.51812  -0.50028  -0.49150  -0.48868  -0.48042
 Alpha  occ. eigenvalues --   -0.47524  -0.46674  -0.46523  -0.45987  -0.45841
 Alpha  occ. eigenvalues --   -0.45566  -0.45062  -0.44985  -0.44287  -0.43554
 Alpha  occ. eigenvalues --   -0.43453  -0.42958  -0.42686  -0.42207  -0.42065
 Alpha  occ. eigenvalues --   -0.41936  -0.41745  -0.41276  -0.41066  -0.41064
 Alpha  occ. eigenvalues --   -0.40876  -0.40758  -0.40192  -0.39980  -0.39892
 Alpha  occ. eigenvalues --   -0.39086  -0.38560  -0.37698  -0.37095  -0.36689
 Alpha  occ. eigenvalues --   -0.36248  -0.35922  -0.35881  -0.35035  -0.34461
 Alpha  occ. eigenvalues --   -0.34185  -0.33603  -0.33454  -0.33309  -0.33275
 Alpha  occ. eigenvalues --   -0.32663  -0.32451  -0.31833  -0.31090  -0.30013
 Alpha  occ. eigenvalues --   -0.29159  -0.28753  -0.27932  -0.26991  -0.26125
 Alpha  occ. eigenvalues --   -0.24714  -0.23880  -0.22959  -0.22084  -0.18245
 Alpha  occ. eigenvalues --   -0.17345
 Alpha virt. eigenvalues --   -0.10142  -0.09248  -0.04857  -0.03973  -0.03121
 Alpha virt. eigenvalues --   -0.02261  -0.00619   0.00339   0.01633   0.01693
 Alpha virt. eigenvalues --    0.02041   0.02545   0.02842   0.03488   0.03729
 Alpha virt. eigenvalues --    0.03793   0.04257   0.05187   0.05382   0.05646
 Alpha virt. eigenvalues --    0.05820   0.06382   0.07008   0.07457   0.07771
 Alpha virt. eigenvalues --    0.07923   0.08669   0.08777   0.09231   0.09326
 Alpha virt. eigenvalues --    0.10398   0.10688   0.10789   0.10901   0.11426
 Alpha virt. eigenvalues --    0.12201   0.12648   0.13089   0.13193   0.13845
 Alpha virt. eigenvalues --    0.14577   0.14669   0.15674   0.16112   0.17569
 Alpha virt. eigenvalues --    0.18231   0.18308   0.18555   0.19542   0.19784
 Alpha virt. eigenvalues --    0.19848   0.20062   0.22398   0.22687   0.23468
 Alpha virt. eigenvalues --    0.23669   0.24091   0.24178   0.25023   0.25245
 Alpha virt. eigenvalues --    0.25876   0.26079   0.27135   0.27368   0.27741
 Alpha virt. eigenvalues --    0.27934   0.28044   0.28103   0.28647   0.28781
 Alpha virt. eigenvalues --    0.28832   0.29319   0.29694   0.29888   0.30142
 Alpha virt. eigenvalues --    0.30364   0.30802   0.31184   0.31310   0.31699
 Alpha virt. eigenvalues --    0.32739   0.34233   0.34283   0.35043   0.36059
 Alpha virt. eigenvalues --    0.36113   0.36708   0.37005   0.37043   0.37212
 Alpha virt. eigenvalues --    0.37448   0.37493   0.37717   0.37859   0.37921
 Alpha virt. eigenvalues --    0.38213   0.38351   0.38570   0.38803   0.39066
 Alpha virt. eigenvalues --    0.39210   0.39497   0.39578   0.39769   0.40039
 Alpha virt. eigenvalues --    0.40251   0.40381   0.40632   0.40951   0.41517
 Alpha virt. eigenvalues --    0.41829   0.41914   0.42073   0.42092   0.42345
 Alpha virt. eigenvalues --    0.42450   0.42558   0.42647   0.43028   0.43387
 Alpha virt. eigenvalues --    0.43438   0.43615   0.44047   0.44499   0.44726
 Alpha virt. eigenvalues --    0.44876   0.45059   0.45298   0.45547   0.45626
 Alpha virt. eigenvalues --    0.45780   0.45975   0.46064   0.46248   0.46398
 Alpha virt. eigenvalues --    0.46603   0.47040   0.47161   0.47163   0.47300
 Alpha virt. eigenvalues --    0.47509   0.47809   0.47994   0.48450   0.48496
 Alpha virt. eigenvalues --    0.48890   0.49032   0.49077   0.49282   0.49291
 Alpha virt. eigenvalues --    0.49557   0.50035   0.50083   0.50894   0.51443
 Alpha virt. eigenvalues --    0.51479   0.51777   0.52030   0.52234   0.52612
 Alpha virt. eigenvalues --    0.53579   0.53667   0.54062   0.54123   0.54953
 Alpha virt. eigenvalues --    0.55599   0.55772   0.57164   0.57481   0.57536
 Alpha virt. eigenvalues --    0.58704   0.58715   0.58968   0.59467   0.59886
 Alpha virt. eigenvalues --    0.60410   0.60587   0.60885   0.61258   0.61321
 Alpha virt. eigenvalues --    0.61473   0.61540   0.62159   0.62237   0.62390
 Alpha virt. eigenvalues --    0.62551   0.62770   0.62886   0.63520   0.63576
 Alpha virt. eigenvalues --    0.64000   0.64346   0.64472   0.64676   0.65213
 Alpha virt. eigenvalues --    0.65449   0.65843   0.65980   0.66025   0.66484
 Alpha virt. eigenvalues --    0.67369   0.67538   0.68306   0.69970   0.70237
 Alpha virt. eigenvalues --    0.70313   0.70701   0.71422   0.71551   0.71647
 Alpha virt. eigenvalues --    0.72036   0.72201   0.72733   0.73306   0.73459
 Alpha virt. eigenvalues --    0.73769   0.74148   0.74731   0.75528   0.75946
 Alpha virt. eigenvalues --    0.76496   0.76556   0.76913   0.77139   0.77260
 Alpha virt. eigenvalues --    0.78140   0.78679   0.78786   0.79219   0.79274
 Alpha virt. eigenvalues --    0.79439   0.80010   0.80164   0.80481   0.81096
 Alpha virt. eigenvalues --    0.81286   0.81504   0.81746   0.82816   0.82862
 Alpha virt. eigenvalues --    0.83191   0.83653   0.83943   0.84137   0.84576
 Alpha virt. eigenvalues --    0.84663   0.85260   0.85621   0.85712   0.87322
 Alpha virt. eigenvalues --    0.88176   0.89252   0.89404   0.89428   0.90634
 Alpha virt. eigenvalues --    0.90663   0.91472   0.91624   0.92594   0.92966
 Alpha virt. eigenvalues --    0.93076   0.94259   0.94616   0.95108   0.95567
 Alpha virt. eigenvalues --    0.95852   0.95866   0.96305   0.96975   0.97051
 Alpha virt. eigenvalues --    0.97672   0.97958   0.98183   0.98720   0.99048
 Alpha virt. eigenvalues --    0.99529   0.99615   1.00933   1.01654   1.02463
 Alpha virt. eigenvalues --    1.02760   1.02966   1.03031   1.03437   1.03614
 Alpha virt. eigenvalues --    1.03969   1.04120   1.05230   1.05281   1.05291
 Alpha virt. eigenvalues --    1.05783   1.05928   1.06032   1.06145   1.06488
 Alpha virt. eigenvalues --    1.06565   1.07179   1.07356   1.07617   1.07934
 Alpha virt. eigenvalues --    1.08102   1.08887   1.08954   1.09429   1.09787
 Alpha virt. eigenvalues --    1.09913   1.10542   1.11116   1.11841   1.12572
 Alpha virt. eigenvalues --    1.12970   1.13274   1.13638   1.13721   1.14163
 Alpha virt. eigenvalues --    1.14579   1.14999   1.15019   1.15228   1.15841
 Alpha virt. eigenvalues --    1.17171   1.17940   1.17964   1.19241   1.20256
 Alpha virt. eigenvalues --    1.20697   1.21375   1.22329   1.22951   1.23285
 Alpha virt. eigenvalues --    1.23948   1.25040   1.27823   1.28283   1.29897
 Alpha virt. eigenvalues --    1.29973   1.30686   1.31994   1.32379   1.32991
 Alpha virt. eigenvalues --    1.33450   1.34643   1.34892   1.35817   1.37846
 Alpha virt. eigenvalues --    1.38168   1.39438   1.39804   1.39924   1.40016
 Alpha virt. eigenvalues --    1.40419   1.40461   1.40632   1.41266   1.42772
 Alpha virt. eigenvalues --    1.43256   1.43870   1.43966   1.44168   1.45125
 Alpha virt. eigenvalues --    1.45241   1.45787   1.45925   1.46766   1.46792
 Alpha virt. eigenvalues --    1.47562   1.47703   1.48233   1.49091   1.49214
 Alpha virt. eigenvalues --    1.49303   1.49480   1.49825   1.49948   1.50052
 Alpha virt. eigenvalues --    1.50929   1.51085   1.51092   1.52357   1.52870
 Alpha virt. eigenvalues --    1.53192   1.53731   1.54049   1.54414   1.54562
 Alpha virt. eigenvalues --    1.54582   1.54799   1.54807   1.54854   1.55359
 Alpha virt. eigenvalues --    1.55768   1.56415   1.57360   1.57569   1.58000
 Alpha virt. eigenvalues --    1.58870   1.59243   1.59262   1.60070   1.60385
 Alpha virt. eigenvalues --    1.60616   1.60957   1.62449   1.62997   1.63378
 Alpha virt. eigenvalues --    1.64094   1.65357   1.65707   1.66358   1.67300
 Alpha virt. eigenvalues --    1.69381   1.69460   1.69829   1.70216   1.70346
 Alpha virt. eigenvalues --    1.70639   1.71042   1.71583   1.72229   1.72310
 Alpha virt. eigenvalues --    1.72883   1.72922   1.73104   1.73180   1.73308
 Alpha virt. eigenvalues --    1.73547   1.73675   1.73751   1.74103   1.74520
 Alpha virt. eigenvalues --    1.77201   1.78071   1.78582   1.78982   1.79266
 Alpha virt. eigenvalues --    1.79773   1.79993   1.80106   1.80224   1.81343
 Alpha virt. eigenvalues --    1.81358   1.81646   1.81881   1.82241   1.82446
 Alpha virt. eigenvalues --    1.82656   1.83730   1.84423   1.84542   1.84690
 Alpha virt. eigenvalues --    1.85492   1.86172   1.87139   1.87148   1.87224
 Alpha virt. eigenvalues --    1.87715   1.87945   1.88078   1.88120   1.88313
 Alpha virt. eigenvalues --    1.88591   1.88892   1.89026   1.89458   1.90900
 Alpha virt. eigenvalues --    1.91055   1.91307   1.91554   1.92019   1.92356
 Alpha virt. eigenvalues --    1.92459   1.92708   1.92858   1.92865   1.93169
 Alpha virt. eigenvalues --    1.93372   1.93699   1.93774   1.94383   1.94571
 Alpha virt. eigenvalues --    1.95274   1.95306   1.95441   1.95989   1.97345
 Alpha virt. eigenvalues --    1.97843   1.99523   1.99937   2.00424   2.00428
 Alpha virt. eigenvalues --    2.00642   2.00998   2.01547   2.02693   2.03454
 Alpha virt. eigenvalues --    2.03627   2.05478   2.06826   2.07907   2.08839
 Alpha virt. eigenvalues --    2.09045   2.09495   2.09817   2.09947   2.10185
 Alpha virt. eigenvalues --    2.10435   2.12039   2.12724   2.13962   2.14710
 Alpha virt. eigenvalues --    2.15466   2.15931   2.16299   2.16776   2.16911
 Alpha virt. eigenvalues --    2.17685   2.19564   2.20514   2.20831   2.21435
 Alpha virt. eigenvalues --    2.21550   2.22206   2.22322   2.23155   2.23261
 Alpha virt. eigenvalues --    2.24311   2.24384   2.25076   2.26185   2.26614
 Alpha virt. eigenvalues --    2.26941   2.27146   2.27421   2.27736   2.27778
 Alpha virt. eigenvalues --    2.27985   2.28694   2.29337   2.30185   2.30514
 Alpha virt. eigenvalues --    2.33273   2.34320   2.35510   2.36264   2.39027
 Alpha virt. eigenvalues --    2.39283   2.39863   2.40047   2.40801   2.41501
 Alpha virt. eigenvalues --    2.42477   2.42824   2.43259   2.43657   2.45524
 Alpha virt. eigenvalues --    2.45723   2.46305   2.46397   2.46583   2.47734
 Alpha virt. eigenvalues --    2.51392   2.52159   2.52212   2.53125   2.53303
 Alpha virt. eigenvalues --    2.53533   2.54453   2.54494   2.55274   2.55818
 Alpha virt. eigenvalues --    2.56287   2.57245   2.58516   2.58875   2.59208
 Alpha virt. eigenvalues --    2.59478   2.59708   2.60311   2.60326   2.60519
 Alpha virt. eigenvalues --    2.60626   2.61080   2.61374   2.61481   2.62177
 Alpha virt. eigenvalues --    2.62228   2.62599   2.63311   2.63552   2.64057
 Alpha virt. eigenvalues --    2.64092   2.64749   2.65356   2.65884   2.66328
 Alpha virt. eigenvalues --    2.66747   2.66804   2.67273   2.67447   2.68029
 Alpha virt. eigenvalues --    2.68281   2.68335   2.68831   2.68875   2.69178
 Alpha virt. eigenvalues --    2.69320   2.69498   2.69618   2.69742   2.69767
 Alpha virt. eigenvalues --    2.70269   2.70551   2.71023   2.71546   2.72413
 Alpha virt. eigenvalues --    2.73172   2.74095   2.74382   2.74780   2.75002
 Alpha virt. eigenvalues --    2.75478   2.75634   2.76335   2.76875   2.77036
 Alpha virt. eigenvalues --    2.77180   2.77556   2.77593   2.78425   2.78520
 Alpha virt. eigenvalues --    2.79408   2.79435   2.79543   2.79567   2.80947
 Alpha virt. eigenvalues --    2.81853   2.82547   2.82600   2.83837   2.85892
 Alpha virt. eigenvalues --    2.86055   2.86543   2.86644   2.87327   2.87729
 Alpha virt. eigenvalues --    2.88087   2.89400   2.90290   2.90681   2.91596
 Alpha virt. eigenvalues --    2.92218   2.92576   2.93420   2.94143   2.94427
 Alpha virt. eigenvalues --    2.95141   2.95425   2.96041   2.96377   2.96918
 Alpha virt. eigenvalues --    2.98928   2.99956   3.00143   3.02733   3.03518
 Alpha virt. eigenvalues --    3.04797   3.06360   3.06699   3.07758   3.08229
 Alpha virt. eigenvalues --    3.08804   3.09302   3.15777   3.15875   3.16399
 Alpha virt. eigenvalues --    3.16694   3.16785   3.17408   3.19707   3.19856
 Alpha virt. eigenvalues --    3.20554   3.20777   3.23351   3.24163   3.28800
 Alpha virt. eigenvalues --    3.29387   3.29899   3.30314   3.31522   3.32296
 Alpha virt. eigenvalues --    3.34797   3.35203   3.35525   3.35823   3.36129
 Alpha virt. eigenvalues --    3.36314   3.36490   3.36801   3.37768   3.38654
 Alpha virt. eigenvalues --    3.39680   3.40538   3.41103   3.42299   3.44754
 Alpha virt. eigenvalues --    3.45211   3.45573   3.46030   3.47791   3.48060
 Alpha virt. eigenvalues --    3.48800   3.49046   3.50177   3.51008   3.52804
 Alpha virt. eigenvalues --    3.53996   3.57143   3.58105   3.58504   3.59275
 Alpha virt. eigenvalues --    3.61399   3.62195   3.62455   3.62925   3.63308
 Alpha virt. eigenvalues --    3.63466   3.64726   3.65059   3.65685   3.66624
 Alpha virt. eigenvalues --    3.67225   3.67369   3.68580   3.68610   4.00112
 Alpha virt. eigenvalues --    4.00167   4.01129   4.01130   4.01684   4.01942
 Alpha virt. eigenvalues --    4.02414   4.02756   4.15842   4.16399   4.16953
 Alpha virt. eigenvalues --    4.17248   4.17555   4.18929   4.20973   4.21969
 Alpha virt. eigenvalues --    4.22133   4.22340   4.23194   4.23365   4.25189
 Alpha virt. eigenvalues --    4.26652   4.38189   4.39470   4.61862   4.63416
 Alpha virt. eigenvalues --    4.78800   4.79389   4.79799   4.80194   4.80371
 Alpha virt. eigenvalues --    4.81317   4.82213   4.82607   4.83471   4.84039
 Alpha virt. eigenvalues --   23.38889  23.40136  23.54271  23.55307  23.68870
 Alpha virt. eigenvalues --   23.69738  23.77034  23.78104  23.80166  23.80997
 Alpha virt. eigenvalues --   23.81238  23.82217  23.85799  23.86719  23.88772
 Alpha virt. eigenvalues --   23.88851  23.89666  23.89738  23.91892  23.92859
 Alpha virt. eigenvalues --   23.97188  23.97989  23.98154  23.98896  24.08687
 Alpha virt. eigenvalues --   24.09558  24.09611  24.10163  24.10462  24.11061
 Alpha virt. eigenvalues --   24.11871  24.12888  24.13420  24.14011  24.14434
 Alpha virt. eigenvalues --   24.15117  24.15433  24.15466  24.16247  24.16281
 Alpha virt. eigenvalues --   24.20111  24.20157  24.21033  24.21080
          Condensed to atoms (all electrons):
 Mulliken charges:
               1
     1  C   -0.059962
     2  C   -0.047073
     3  C   -0.052532
     4  C   -0.067995
     5  C   -0.090761
     6  C   -0.089002
     7  C   -0.010838
     8  C   -0.056273
     9  C   -0.035531
    10  C   -0.040813
    11  H    0.083819
    12  H    0.076815
    13  H    0.075891
    14  H    0.084047
    15  H    0.096231
    16  H    0.096176
    17  C   -0.014664
    18  C   -0.056273
    19  C   -0.039019
    20  C   -0.040813
    21  H    0.075465
    22  H    0.074560
    23  C   -0.010838
    24  C   -0.059962
    25  C   -0.035531
    26  C   -0.047073
    27  H    0.076815
    28  H    0.075891
    29  C   -0.052532
    30  C   -0.090761
    31  C   -0.067995
    32  C   -0.089002
    33  H    0.083819
    34  H    0.096176
    35  H    0.096231
    36  H    0.084047
    37  C   -0.040810
    38  C   -0.088767
    39  C   -0.059610
    40  C   -0.050505
    41  C   -0.089096
    42  C   -0.105726
    43  C   -0.023967
    44  C   -0.031883
    45  C   -0.012047
    46  C   -0.089366
    47  H    0.080183
    48  H    0.072351
    49  H    0.092360
    50  H    0.094974
    51  H    0.090130
    52  H    0.092743
    53  C   -0.027983
    54  C   -0.031883
    55  C   -0.016404
    56  C   -0.089366
    57  H    0.070949
    58  H    0.090770
    59  C   -0.023967
    60  C   -0.040810
    61  C   -0.012047
    62  C   -0.088767
    63  H    0.072351
    64  H    0.092360
    65  C   -0.059610
    66  C   -0.089096
    67  C   -0.050505
    68  C   -0.105726
    69  H    0.080183
    70  H    0.092743
    71  H    0.090130
    72  H    0.094974
 Sum of Mulliken charges =   0.00000
 Mulliken charges with hydrogens summed into heavy atoms:
               1
     1  C   -0.059962
     2  C   -0.047073
     3  C    0.031288
     4  C    0.016052
     5  C    0.005415
     6  C    0.007229
     7  C    0.065977
     8  C   -0.056273
     9  C    0.040359
    10  C   -0.040813
    17  C    0.060801
    18  C   -0.056273
    19  C    0.035541
    20  C   -0.040813
    23  C    0.065977
    24  C   -0.059962
    25  C    0.040359
    26  C   -0.047073
    29  C    0.031288
    30  C    0.005415
    31  C    0.016052
    32  C    0.007229
    37  C   -0.040810
    38  C   -0.088767
    39  C    0.020572
    40  C    0.044469
    41  C    0.003647
    42  C   -0.015596
    43  C    0.048384
    44  C   -0.031883
    45  C    0.080313
    46  C   -0.089366
    53  C    0.042966
    54  C   -0.031883
    55  C    0.074366
    56  C   -0.089366
    59  C    0.048384
    60  C   -0.040810
    61  C    0.080313
    62  C   -0.088767
    65  C    0.020572
    66  C    0.003647
    67  C    0.044469
    68  C   -0.015596
         Mulliken charges condensed to fragments:
      1      0.020741
      2     -0.020741
 Electronic spatial extent (au):  <R**2>=          28258.8139
 Charge=              0.0000 electrons
 Dipole moment (field-independent basis, Debye):
    X=              0.8232    Y=             -0.6814    Z=              0.0000  Tot=              1.0686
 Quadrupole moment (field-independent basis, Debye-Ang):
   XX=           -246.3607   YY=           -248.0646   ZZ=           -218.8255
   XY=             -0.5640   XZ=              0.0000   YZ=              0.0000
 Traceless Quadrupole moment (field-independent basis, Debye-Ang):
   XX=             -8.6104   YY=            -10.3143   ZZ=             18.9247
   XY=             -0.5640   XZ=              0.0000   YZ=              0.0000
 Octapole moment (field-independent basis, Debye-Ang**2):
  XXX=            108.8016  YYY=            197.3973  ZZZ=              0.0000  XYY=            -27.0571
  XXY=            -75.4361  XXZ=              0.0000  XZZ=             14.8506  YZZ=            -17.4347
  YYZ=              0.0000  XYZ=              0.0000
 Hexadecapole moment (field-independent basis, Debye-Ang**3):
 XXXX=          -3862.4557 YYYY=         -12436.9462 ZZZZ=         -20973.8578 XXXY=           2684.1270
 XXXZ=              0.0000 YYYX=           2696.3967 YYYZ=              0.0000 ZZZX=              0.0000
 ZZZY=              0.0000 XXYY=          -2799.5851 XXZZ=          -4552.7672 YYZZ=          -5829.7015
 XXYZ=              0.0000 YYXZ=              0.0000 ZZXY=            788.2835
 N-N= 4.479209221916D+03 E-N=-1.288873593613D+04  KE= 1.686672708820D+03
 Symmetry A'   KE= 9.134096383372D+02
 Symmetry A"   KE= 7.732630704828D+02
 No NMR shielding tensors so no spin-rotation constants.
 Leave Link  601 at Wed Sep 27 17:00:27 2023, MaxMem=  3221225472 cpu:              50.2 elap:               1.3
 (Enter /home/center/opt/aarch64/apps/gaussian16/c01/g16/l122.exe)
 CPIOFr:  IOpCl= 0 IRwI=-1 IRwCP=  731 ICalc= -1 LCPTot=     1419224 Len1MO=     3708034 IndFrg=     1419224
 CPIOFr:  IOpCl= 0 IRwI=-1 IRwCP=  731 ICalc=  0 LCPTot=     1419224 Len1MO=     3708034 IndFrg=     5127258
 Counterpoise: doing calculation for fragment   1 using the basis set of the full-system, NewBq=T
 Leave Link  122 at Wed Sep 27 17:00:29 2023, MaxMem=  3221225472 cpu:               8.6 elap:               0.3
 (Enter /home/center/opt/aarch64/apps/gaussian16/c01/g16/l301.exe)
 Basis read from rwf:  (5D, 7F)
 No pseudopotential information found on rwf file.
 There are   528 symmetry adapted cartesian basis functions of A'  symmetry.
 There are   476 symmetry adapted cartesian basis functions of A"  symmetry.
 There are   504 symmetry adapted basis functions of A'  symmetry.
 There are   456 symmetry adapted basis functions of A"  symmetry.
   960 basis functions,  1632 primitive gaussians,  1004 cartesian basis functions
    73 alpha electrons       73 beta electrons
       nuclear repulsion energy      1494.3575060188 Hartrees.
 IExCor=  402 DFT=T Ex+Corr=B3LYP ExCW=0 ScaHFX=  0.200000
 ScaDFX=  0.800000  0.720000  1.000000  0.810000 ScalE2=  1.000000  1.000000
 IRadAn=      5 IRanWt=     -1 IRanGd=            0 ICorTp=0 IEmpDi=131
 NAtoms=   72 NActive=   72 NUniq=   40 SFac= 3.24D+00 NAtFMM=   60 NAOKFM=T Big=F
 Integral buffers will be    131072 words long.
 Raffenetti 2 integral format.
 Two-electron integral symmetry is turned on.
 R6Disp:  Grimme-D3 Dispersion energy=       -0.0303938888 Hartrees.
 Nuclear repulsion after empirical dispersion term =     1494.3271121300 Hartrees.
 No density basis found on file    718.
 Leave Link  301 at Wed Sep 27 17:00:32 2023, MaxMem=  3221225472 cpu:               2.5 elap:               0.1
 (Enter /home/center/opt/aarch64/apps/gaussian16/c01/g16/l302.exe)
 NPDir=0 NMtPBC=     1 NCelOv=     1 NCel=       1 NClECP=     1 NCelD=      1
         NCelK=      1 NCelE2=     1 NClLst=     1 CellRange=     0.0.
 One-electron integrals computed using PRISM.
 One-electron integral symmetry used in STVInt
 NBasis=   960 RedAO= T EigKep=  3.99D-05  NBF=   504   456
 NBsUse=   960 1.00D-06 EigRej= -1.00D+00 NBFU=   504   456
 Precomputing XC quadrature grid using
 IXCGrd= 4 IRadAn=           5 IRanWt=          -1 IRanGd=           0 AccXCQ= 0.00D+00.
 Generated NRdTot=       0 NPtTot=           0 NUsed=           0 NTot=          32
 NSgBfM=   987   987   987   987   987 MxSgAt=    72 MxSgA2=    72.
 Leave Link  302 at Wed Sep 27 17:00:36 2023, MaxMem=  3221225472 cpu:              60.2 elap:               1.6
 (Enter /home/center/opt/aarch64/apps/gaussian16/c01/g16/l303.exe)
 DipDrv:  MaxL=1.
 Leave Link  303 at Wed Sep 27 17:00:38 2023, MaxMem=  3221225472 cpu:              12.7 elap:               0.4
 (Enter /home/center/opt/aarch64/apps/gaussian16/c01/g16/l401.exe)
 ExpMin= 1.03D-01 ExpMax= 4.56D+03 ExpMxC= 6.82D+02 IAcc=3 IRadAn=         5 AccDes= 0.00D+00
 Harris functional with IExCor=  402 and IRadAn=       5 diagonalized for initial guess.
 HarFok:  IExCor=  402 AccDes= 0.00D+00 IRadAn=         5 IDoV= 1 UseB2=F ITyADJ=14
 ICtDFT=  3500011 ScaDFX=  1.000000  1.000000  1.000000  1.000000
 FoFCou: FMM=F IPFlag=           0 FMFlag=      100000 FMFlg1=        2000
         NFxFlg=           0 DoJE=T BraDBF=F KetDBF=T FulRan=T
         wScrn=  0.000000 ICntrl=       500 IOpCl=  0 I1Cent=   200000004 NGrid=           0
         NMat0=    1 NMatS0=      1 NMatT0=    0 NMatD0=    1 NMtDS0=    0 NMtDT0=    0
 Petite list used in FoFCou.
 Harris En= -847.065002285005    
 JPrj=0 DoOrth=F DoCkMO=F.
 Initial guess orbital symmetries:
       Occupied  (A") (A') (A') (A") (A") (A') (A") (A') (A') (A")
                 (A") (A') (A') (A') (A") (A') (A") (A') (A") (A')
                 (A') (A") (A') (A") (A') (A") (A') (A') (A") (A')
                 (A") (A") (A') (A') (A") (A") (A') (A") (A') (A')
                 (A') (A") (A") (A") (A') (A') (A") (A') (A') (A")
                 (A') (A") (A") (A') (A') (A") (A') (A") (A') (A")
                 (A") (A') (A') (A") (A') (A") (A') (A") (A') (A')
                 (A") (A") (A')
       Virtual   (A') (A") (A") (A') (A') (A") (A') (A") (A') (A")
                 (A') (A') (A") (A') (A") (A') (A") (A') (A') (A")
                 (A") (A') (A') (A") (A') (A") (A') (A') (A') (A")
                 (A') (A") (A') (A") (A") (A') (A') (A") (A") (A')
                 (A') (A") (A") (A') (A") (A') (A') (A") (A") (A')
                 (A') (A") (A") (A') (A') (A") (A') (A") (A') (A')
                 (A') (A") (A") (A") (A') (A') (A') (A") (A') (A")
                 (A') (A") (A") (A') (A') (A") (A') (A') (A") (A')
                 (A') (A") (A') (A") (A') (A') (A") (A") (A") (A')
                 (A") (A') (A") (A") (A') (A") (A') (A") (A') (A')
                 (A') (A') (A") (A") (A') (A') (A') (A") (A') (A")
                 (A') (A") (A') (A") (A') (A") (A") (A") (A') (A")
                 (A") (A') (A') (A") (A') (A") (A') (A') (A') (A")
                 (A') (A") (A') (A') (A') (A") (A') (A') (A") (A")
                 (A") (A') (A') (A") (A') (A") (A') (A") (A") (A')
                 (A') (A") (A") (A") (A') (A") (A') (A') (A') (A")
                 (A') (A') (A") (A") (A') (A") (A') (A') (A") (A')
                 (A") (A') (A") (A") (A") (A') (A") (A') (A') (A')
                 (A') (A") (A") (A') (A") (A") (A') (A") (A') (A")
                 (A') (A') (A") (A') (A') (A') (A") (A') (A") (A')
                 (A") (A") (A") (A") (A') (A") (A') (A') (A") (A')
                 (A') (A') (A") (A") (A') (A") (A') (A") (A") (A")
                 (A') (A') (A') (A') (A") (A') (A') (A") (A') (A")
                 (A") (A') (A") (A') (A') (A") (A") (A') (A") (A")
                 (A') (A") (A') (A') (A") (A') (A') (A") (A") (A")
                 (A") (A') (A') (A") (A') (A') (A') (A') (A") (A')
                 (A") (A") (A") (A') (A') (A') (A") (A") (A') (A')
                 (A") (A") (A') (A") (A') (A") (A') (A") (A') (A")
                 (A') (A") (A') (A') (A") (A") (A') (A") (A') (A')
                 (A") (A') (A") (A') (A") (A') (A') (A') (A') (A")
                 (A") (A') (A") (A") (A') (A') (A") (A') (A") (A")
                 (A") (A") (A') (A") (A') (A') (A') (A') (A") (A')
                 (A") (A') (A') (A") (A") (A') (A") (A') (A") (A')
                 (A") (A') (A') (A') (A") (A') (A") (A') (A') (A")
                 (A') (A") (A") (A") (A') (A") (A') (A") (A') (A')
                 (A') (A") (A") (A') (A") (A') (A") (A') (A') (A')
                 (A') (A") (A') (A") (A") (A") (A') (A') (A") (A")
                 (A') (A") (A') (A") (A') (A") (A") (A') (A") (A")
                 (A') (A') (A') (A") (A") (A') (A') (A') (A") (A")
                 (A') (A") (A') (A") (A') (A') (A") (A') (A") (A")
                 (A") (A') (A') (A") (A') (A") (A") (A') (A') (A")
                 (A') (A") (A') (A') (A") (A') (A") (A") (A') (A")
                 (A') (A') (A") (A') (A") (A") (A') (A") (A') (A")
                 (A") (A') (A') (A') (A') (A") (A") (A') (A") (A')
                 (A") (A') (A') (A') (A") (A') (A") (A") (A") (A')
                 (A") (A') (A') (A') (A') (A") (A") (A') (A") (A")
                 (A') (A") (A') (A") (A') (A") (A') (A") (A') (A")
                 (A') (A') (A") (A") (A') (A") (A") (A') (A') (A")
                 (A') (A") (A") (A') (A") (A') (A') (A") (A') (A")
                 (A') (A") (A') (A") (A') (A") (A') (A') (A") (A")
                 (A') (A") (A') (A") (A') (A") (A') (A") (A') (A")
                 (A') (A') (A') (A") (A") (A") (A") (A") (A') (A')
                 (A') (A') (A") (A") (A') (A") (A') (A') (A") (A')
                 (A') (A") (A") (A') (A') (A') (A") (A') (A') (A")
                 (A") (A") (A') (A') (A') (A") (A') (A") (A") (A')
                 (A") (A") (A') (A') (A") (A') (A') (A') (A") (A")
                 (A') (A") (A') (A") (A") (A') (A") (A") (A') (A")
                 (A') (A') (A') (A') (A") (A') (A') (A") (A") (A")
                 (A') (A') (A") (A") (A') (A') (A") (A") (A") (A')
                 (A") (A') (A') (A') (A') (A') (A") (A") (A') (A")
                 (A") (A') (A") (A") (A') (A') (A") (A') (A") (A')
                 (A') (A") (A') (A") (A') (A") (A') (A') (A") (A")
                 (A') (A') (A") (A") (A') (A") (A") (A') (A') (A")
                 (A") (A') (A") (A") (A") (A') (A') (A') (A') (A")
                 (A') (A") (A') (A') (A") (A") (A') (A") (A') (A")
                 (A') (A') (A") (A") (A') (A') (A") (A") (A") (A')
                 (A") (A") (A') (A') (A") (A') (A") (A") (A') (A')
                 (A') (A") (A") (A') (A') (A") (A') (A") (A') (A')
                 (A") (A') (A") (A') (A") (A') (A") (A') (A') (A")
                 (A') (A") (A') (A') (A") (A") (A") (A') (A') (A')
[...]
                 (A') (A') (A") (A") (A') (A") (A') (A") (A') (A')
                 (A") (A") (A')
       Virtual   (A') (A") (A") (A') (A') (A") (A') (A') (A') (A")
                 (A") (A') (A") (A') (A") (A') (A") (A") (A') (A")
                 (A') (A') (A") (A') (A") (A') (A') (A') (A') (A")
                 (A") (A") (A") (A') (A') (A") (A') (A") (A') (A")
                 (A') (A') (A') (A") (A') (A") (A") (A') (A') (A")
                 (A") (A') (A') (A") (A') (A") (A") (A") (A') (A")
                 (A') (A') (A') (A') (A') (A") (A') (A') (A") (A")
                 (A") (A') (A') (A') (A") (A') (A") (A") (A") (A')
                 (A') (A") (A') (A") (A") (A') (A") (A') (A') (A')
                 (A') (A') (A") (A") (A") (A") (A') (A") (A') (A")
                 (A') (A') (A') (A") (A") (A') (A') (A") (A') (A")
                 (A') (A") (A") (A") (A') (A') (A") (A') (A') (A")
                 (A') (A") (A") (A') (A') (A") (A') (A") (A') (A")
                 (A") (A') (A') (A') (A') (A") (A") (A") (A') (A")
                 (A') (A") (A') (A") (A') (A') (A") (A") (A') (A")
                 (A') (A") (A') (A") (A') (A') (A") (A') (A") (A")
                 (A') (A") (A') (A') (A") (A") (A') (A") (A') (A")
                 (A') (A') (A") (A') (A') (A") (A") (A') (A') (A')
                 (A") (A') (A") (A") (A") (A") (A') (A") (A') (A')
                 (A") (A') (A") (A') (A') (A') (A") (A') (A") (A')
                 (A") (A") (A') (A') (A") (A") (A') (A') (A") (A')
                 (A') (A') (A') (A") (A") (A") (A") (A') (A') (A")
                 (A') (A") (A") (A') (A") (A') (A") (A') (A") (A')
                 (A") (A') (A') (A") (A') (A") (A") (A') (A') (A")
                 (A") (A') (A') (A") (A") (A') (A") (A") (A") (A')
                 (A') (A") (A') (A') (A") (A') (A') (A") (A') (A")
                 (A") (A') (A") (A') (A') (A") (A") (A") (A') (A')
                 (A") (A') (A') (A") (A") (A") (A') (A") (A') (A')
                 (A") (A') (A") (A') (A") (A') (A') (A') (A") (A')
                 (A") (A") (A') (A') (A") (A") (A') (A") (A') (A")
                 (A') (A') (A") (A") (A') (A') (A") (A') (A') (A')
                 (A") (A") (A') (A") (A') (A") (A') (A") (A') (A')
                 (A') (A") (A") (A") (A') (A") (A') (A') (A') (A")
                 (A") (A') (A") (A') (A') (A") (A') (A") (A") (A')
                 (A') (A") (A') (A") (A") (A') (A') (A") (A') (A")
                 (A') (A") (A') (A") (A') (A") (A") (A') (A') (A")
                 (A') (A") (A') (A') (A") (A") (A') (A") (A') (A')
                 (A") (A') (A") (A') (A') (A") (A') (A") (A') (A")
                 (A") (A') (A") (A') (A") (A') (A") (A') (A') (A")
                 (A") (A') (A") (A') (A') (A") (A") (A') (A') (A")
                 (A') (A") (A') (A") (A') (A') (A")
 The electronic state is 1-A'.
 Alpha  occ. eigenvalues --  -10.18931 -10.18930 -10.18896 -10.18895 -10.18848
 Alpha  occ. eigenvalues --  -10.18848 -10.18813 -10.18813 -10.17956 -10.17955
 Alpha  occ. eigenvalues --  -10.17920 -10.17920 -10.17919 -10.17919 -10.17875
 Alpha  occ. eigenvalues --  -10.17875 -10.17863 -10.17863 -10.17808 -10.17808
 Alpha  occ. eigenvalues --  -10.17781 -10.17781  -0.89340  -0.87865  -0.85549
 Alpha  occ. eigenvalues --   -0.82415  -0.79820  -0.78521  -0.78314  -0.75991
 Alpha  occ. eigenvalues --   -0.74255  -0.72901  -0.69196  -0.67344  -0.62728
 Alpha  occ. eigenvalues --   -0.62370  -0.61108  -0.59964  -0.59301  -0.57689
 Alpha  occ. eigenvalues --   -0.52709  -0.52573  -0.52293  -0.49654  -0.48513
 Alpha  occ. eigenvalues --   -0.47160  -0.46110  -0.45590  -0.45476  -0.43928
 Alpha  occ. eigenvalues --   -0.43182  -0.42578  -0.41808  -0.41572  -0.41386
 Alpha  occ. eigenvalues --   -0.40692  -0.40405  -0.39579  -0.38193  -0.36732
 Alpha  occ. eigenvalues --   -0.36341  -0.35550  -0.34094  -0.33809  -0.33058
 Alpha  occ. eigenvalues --   -0.32930  -0.31612  -0.29665  -0.28406  -0.26623
 Alpha  occ. eigenvalues --   -0.24364  -0.22582  -0.17855
 Alpha virt. eigenvalues --   -0.09755  -0.04464  -0.02747  -0.00147   0.02073
 Alpha virt. eigenvalues --    0.02370   0.03189   0.04746   0.04859   0.04871
 Alpha virt. eigenvalues --    0.06161   0.06575   0.07968   0.08162   0.08303
 Alpha virt. eigenvalues --    0.09607   0.10049   0.11524   0.11533   0.13796
 Alpha virt. eigenvalues --    0.14111   0.14670   0.18092   0.18194   0.18832
 Alpha virt. eigenvalues --    0.19391   0.22815   0.23002   0.24379   0.24942
 Alpha virt. eigenvalues --    0.25581   0.27528   0.27575   0.28012   0.28228
 Alpha virt. eigenvalues --    0.28947   0.29389   0.30158   0.30759   0.31175
 Alpha virt. eigenvalues --    0.32897   0.34528   0.36420   0.36484   0.37134
 Alpha virt. eigenvalues --    0.37503   0.37629   0.37651   0.38116   0.38643
 Alpha virt. eigenvalues --    0.39094   0.39439   0.39739   0.40236   0.40435
 Alpha virt. eigenvalues --    0.41918   0.41926   0.41940   0.42289   0.42318
 Alpha virt. eigenvalues --    0.42643   0.43748   0.44233   0.44835   0.45295
 Alpha virt. eigenvalues --    0.45683   0.45924   0.45953   0.46379   0.47165
 Alpha virt. eigenvalues --    0.47805   0.47809   0.47978   0.48073   0.48231
 Alpha virt. eigenvalues --    0.48568   0.49414   0.49572   0.51377   0.51846
 Alpha virt. eigenvalues --    0.52370   0.53118   0.53671   0.55998   0.57923
 Alpha virt. eigenvalues --    0.57955   0.59048   0.59201   0.60433   0.60585
 Alpha virt. eigenvalues --    0.60693   0.61101   0.61690   0.62105   0.62173
 Alpha virt. eigenvalues --    0.63432   0.63481   0.64458   0.64535   0.65533
 Alpha virt. eigenvalues --    0.66693   0.66910   0.67680   0.67724   0.70658
 Alpha virt. eigenvalues --    0.71305   0.71405   0.71494   0.72803   0.73989
 Alpha virt. eigenvalues --    0.75405   0.75894   0.76289   0.77801   0.77809
 Alpha virt. eigenvalues --    0.78943   0.79160   0.79723   0.81162   0.81509
 Alpha virt. eigenvalues --    0.82881   0.83001   0.84383   0.84585   0.84713
 Alpha virt. eigenvalues --    0.88087   0.89711   0.89765   0.91536   0.92083
 Alpha virt. eigenvalues --    0.92578   0.93749   0.95806   0.96107   0.96442
 Alpha virt. eigenvalues --    0.96590   0.96905   0.98547   1.00356   1.01118
 Alpha virt. eigenvalues --    1.02686   1.03027   1.03354   1.04405   1.05244
 Alpha virt. eigenvalues --    1.05439   1.05525   1.05950   1.07395   1.07547
 Alpha virt. eigenvalues --    1.07686   1.08438   1.10005   1.10036   1.12070
 Alpha virt. eigenvalues --    1.13223   1.13544   1.13650   1.14526   1.15341
 Alpha virt. eigenvalues --    1.17432   1.18332   1.19657   1.20432   1.23014
 Alpha virt. eigenvalues --    1.23618   1.27884   1.28234   1.30579   1.32076
 Alpha virt. eigenvalues --    1.32743   1.34942   1.37641   1.39236   1.39896
 Alpha virt. eigenvalues --    1.39942   1.40725   1.42751   1.43476   1.43554
 Alpha virt. eigenvalues --    1.45057   1.46086   1.47119   1.47538   1.48841
 Alpha virt. eigenvalues --    1.49280   1.49417   1.50258   1.50674   1.52268
 Alpha virt. eigenvalues --    1.52650   1.53402   1.54331   1.54372   1.54781
 Alpha virt. eigenvalues --    1.54807   1.57107   1.57715   1.58569   1.59882
 Alpha virt. eigenvalues --    1.60106   1.62692   1.63242   1.64856   1.66641
 Alpha virt. eigenvalues --    1.69292   1.69605   1.69709   1.70649   1.71804
 Alpha virt. eigenvalues --    1.72459   1.72619   1.73075   1.73096   1.73680
 Alpha virt. eigenvalues --    1.77494   1.78519   1.79157   1.79419   1.80511
 Alpha virt. eigenvalues --    1.81616   1.81887   1.82058   1.83581   1.84039
 Alpha virt. eigenvalues --    1.85487   1.87392   1.87456   1.87577   1.87728
 Alpha virt. eigenvalues --    1.88131   1.88613   1.90743   1.91387   1.92190
 Alpha virt. eigenvalues --    1.92193   1.92572   1.92670   1.93517   1.93938
 Alpha virt. eigenvalues --    1.94544   1.95483   1.97262   1.99429   2.00088
 Alpha virt. eigenvalues --    2.00602   2.01362   2.03019   2.05757   2.08293
 Alpha virt. eigenvalues --    2.09111   2.09256   2.09792   2.12192   2.14098
 Alpha virt. eigenvalues --    2.15528   2.15584   2.17200   2.19751   2.20833
 Alpha virt. eigenvalues --    2.21576   2.22525   2.23381   2.24503   2.26441
 Alpha virt. eigenvalues --    2.26972   2.27242   2.27719   2.28046   2.29391
 Alpha virt. eigenvalues --    2.33301   2.35725   2.39155   2.39384   2.40817
 Alpha virt. eigenvalues --    2.42649   2.43076   2.45776   2.45994   2.46870
 Alpha virt. eigenvalues --    2.51623   2.51954   2.53354   2.53485   2.55138
 Alpha virt. eigenvalues --    2.56159   2.58701   2.58838   2.59764   2.59776
 Alpha virt. eigenvalues --    2.60682   2.61147   2.61719   2.62222   2.63349
 Alpha virt. eigenvalues --    2.63999   2.64478   2.66054   2.66794   2.67121
 Alpha virt. eigenvalues --    2.67374   2.68356   2.68872   2.68876   2.69372
 Alpha virt. eigenvalues --    2.69557   2.69907   2.70083   2.70281   2.73482
 Alpha virt. eigenvalues --    2.74771   2.74836   2.76066   2.77101   2.77577
 Alpha virt. eigenvalues --    2.78232   2.78455   2.78850   2.80822   2.82359
 Alpha virt. eigenvalues --    2.85535   2.85993   2.86737   2.87294   2.90966
 Alpha virt. eigenvalues --    2.91783   2.92195   2.93676   2.95232   2.95887
 Alpha virt. eigenvalues --    2.99270   2.99858   3.03165   3.05604   3.06852
 Alpha virt. eigenvalues --    3.07371   3.15988   3.16029   3.16647   3.19843
 Alpha virt. eigenvalues --    3.20017   3.23601   3.29134   3.29680   3.31610
 Alpha virt. eigenvalues --    3.35095   3.35458   3.35677   3.35858   3.38023
 Alpha virt. eigenvalues --    3.39887   3.41413   3.44960   3.45362   3.47993
 Alpha virt. eigenvalues --    3.48278   3.50401   3.53073   3.57439   3.58649
 Alpha virt. eigenvalues --    3.61466   3.62620   3.63208   3.63698   3.65910
 Alpha virt. eigenvalues --    3.67534   3.67678   4.00384   4.00442   4.01859
 Alpha virt. eigenvalues --    4.02182   4.16133   4.16678   4.17360   4.21240
 Alpha virt. eigenvalues --    4.22396   4.22517   4.25488   4.38492   4.62290
 Alpha virt. eigenvalues --    4.79179   4.79740   4.80562   4.82562   4.83014
 Alpha virt. eigenvalues --   23.39176  23.54541  23.69085  23.77378  23.80419
 Alpha virt. eigenvalues --   23.81537  23.86099  23.89067  23.89154  23.92210
 Alpha virt. eigenvalues --   23.97563  23.98365  24.09049  24.09932  24.10529
 Alpha virt. eigenvalues --   24.12220  24.13779  24.14375  24.15775  24.15810
 Alpha virt. eigenvalues --   24.20452  24.20497
          Condensed to atoms (all electrons):
 Mulliken charges:
               1
     1  C    0.000000
     2  C    0.000000
     3  C    0.000000
     4  C    0.000000
     5  C    0.000000
     6  C    0.000000
     7  C    0.000000
     8  C    0.000000
     9  C    0.000000
    10  C    0.000000
    11  H    0.000000
    12  H    0.000000
    13  H    0.000000
    14  H    0.000000
    15  H    0.000000
    16  H    0.000000
    17  C    0.000000
    18  C    0.000000
    19  C    0.000000
    20  C    0.000000
    21  H    0.000000
    22  H    0.000000
    23  C    0.000000
    24  C    0.000000
    25  C    0.000000
    26  C    0.000000
    27  H    0.000000
    28  H    0.000000
    29  C    0.000000
    30  C    0.000000
    31  C    0.000000
    32  C    0.000000
    33  H    0.000000
    34  H    0.000000
    35  H    0.000000
    36  H    0.000000
    37  C   -0.059168
    38  C   -0.059168
    39  C   -0.055977
    40  C   -0.055977
    41  C   -0.092198
    42  C   -0.092198
    43  C   -0.016525
    44  C   -0.054498
    45  C   -0.016525
    46  C   -0.054498
    47  H    0.082122
    48  H    0.074853
    49  H    0.074853
    50  H    0.082122
    51  H    0.094847
    52  H    0.094847
    53  C   -0.020341
    54  C   -0.054498
    55  C   -0.020341
    56  C   -0.054498
    57  H    0.073428
    58  H    0.073428
    59  C   -0.016525
    60  C   -0.059168
    61  C   -0.016525
    62  C   -0.059168
    63  H    0.074853
    64  H    0.074853
    65  C   -0.055977
    66  C   -0.092198
    67  C   -0.055977
    68  C   -0.092198
    69  H    0.082122
    70  H    0.094847
    71  H    0.094847
    72  H    0.082122
 Sum of Mulliken charges =   0.00000
 Mulliken charges with hydrogens summed into heavy atoms:
               1
     1  C    0.000000
     2  C    0.000000
     3  C    0.000000
     4  C    0.000000
     5  C    0.000000
     6  C    0.000000
     7  C    0.000000
     8  C    0.000000
     9  C    0.000000
    10  C    0.000000
    17  C    0.000000
    18  C    0.000000
    19  C    0.000000
    20  C    0.000000
    23  C    0.000000
    24  C    0.000000
    25  C    0.000000
    26  C    0.000000
    29  C    0.000000
    30  C    0.000000
    31  C    0.000000
    32  C    0.000000
    37  C   -0.059168
    38  C   -0.059168
    39  C    0.026144
    40  C    0.026144
    41  C    0.002649
    42  C    0.002649
    43  C    0.058328
    44  C   -0.054498
    45  C    0.058328
    46  C   -0.054498
    53  C    0.053087
    54  C   -0.054498
    55  C    0.053087
    56  C   -0.054498
    59  C    0.058328
    60  C   -0.059168
    61  C    0.058328
    62  C   -0.059168
    65  C    0.026144
    66  C    0.002649
    67  C    0.026144
    68  C    0.002649
         Mulliken charges condensed to fragments:
      1      0.000000
      2      0.000000
 Electronic spatial extent (au):  <R**2>=          26536.1616
 Charge=              0.0000 electrons
 Dipole moment (field-independent basis, Debye):
    X=              0.0000    Y=              0.0000    Z=              0.0000  Tot=              0.0000
 Quadrupole moment (field-independent basis, Debye-Ang):
   XX=           -136.3921   YY=           -110.7480   ZZ=           -109.0115
   XY=              0.0000   XZ=              0.0000   YZ=              0.0000
 Traceless Quadrupole moment (field-independent basis, Debye-Ang):
   XX=            -17.6749   YY=              7.9692   ZZ=              9.7057
   XY=              0.0000   XZ=              0.0000   YZ=              0.0000
 Octapole moment (field-independent basis, Debye-Ang**2):
  XXX=           1663.6547  YYY=           1350.8593  ZZZ=              0.0000  XYY=            450.2865
  XXY=            554.5516  XXZ=              0.0000  XZZ=            443.2258  YZZ=            443.2258
  YYZ=              0.0000  XYZ=              0.0000
 Hexadecapole moment (field-independent basis, Debye-Ang**3):
 XXXX=         -13682.7914 YYYY=         -12101.5372 ZZZZ=         -10461.4324 XXXY=          -6764.1938
 XXXZ=              0.0000 YYYX=          -5492.4103 YYYZ=              0.0000 ZZZX=              0.0000
 ZZZY=              0.0000 XXYY=          -4341.9501 XXZZ=          -4010.0280 YYZZ=          -3771.3103
 XXYZ=              0.0000 YYXZ=              0.0000 ZZXY=          -1802.0960
 N-N= 1.494327111877D+03 E-N=-4.953709175296D+03  KE= 8.433374904963D+02
 Symmetry A'   KE= 4.567052305402D+02
 Symmetry A"   KE= 3.866322599562D+02
 No NMR shielding tensors so no spin-rotation constants.
 Leave Link  601 at Wed Sep 27 17:18:07 2023, MaxMem=  3221225472 cpu:              17.9 elap:               0.5
 (Enter /home/center/opt/aarch64/apps/gaussian16/c01/g16/l122.exe)
 CPIOFr:  IOpCl= 0 IRwI=-1 IRwCP=  731 ICalc=  4 LCPTot=     1419224 Len1MO=     3708034 IndFrg=    19959394
 Restoring MOs from calculation   1 to rwf.
 CPIOFr:  IOpCl= 0 IRwI=-2 IRwCP=  731 ICalc=  0 LCPTot=     1419224 Len1MO=     3708034 IndFrg=     5127258
 Counterpoise corrected energy =   -1694.039946697384
                   BSSE energy =      -0.000000092629
              sum of fragments =   -1694.039683044259
           complexation energy =      -0.17 kcal/mole (raw)
           complexation energy =      -0.17 kcal/mole (corrected)
 Leave Link  122 at Wed Sep 27 17:18:10 2023, MaxMem=  3221225472 cpu:               8.3 elap:               0.3
 (Enter /home/center/opt/aarch64/apps/gaussian16/c01/g16/l9999.exe)

 Test job not archived.
 1\1\GINC-FX0520\SP\RB3LYP\6-311G(d,p)\C44H28\Z40145W\27-Sep-2023\0\\#P
  TEST b3lyp/6-311G** EmpiricalDispersion=GD3 counterpoise=2\\pentacene
 _A1=0_A2=0_A3=45_p2\\0,1\C,0,-0.5039478476,0.5239478476,-3.6612755801\
 C,0,0.5239480325,-0.5039480325,-3.6612755629\C,0,-0.9861248463,1.00612
 48463,-4.9235927708\C,0,1.0061250889,-0.9861250889,-4.9235926697\C,0,-
 0.4963213507,0.5163213507,-6.096356521\C,0,0.5163216812,-0.4963216812,
 -6.0963564796\C,0,-0.9844684311,1.0044684311,-2.4533174875\C,0,-0.5044
 88426,0.524488426,-1.2140288145\C,0,1.0044685359,-0.9844685359,-2.4533
 173917\C,0,0.5244885437,-0.5044885437,-1.2140288362\H,0,-1.7533559667,
 1.7733559667,-4.9232600459\H,0,-1.7521866813,1.7721866813,-2.453928581
 5\H,0,1.7721859268,-1.7521859268,-2.4539284818\H,0,1.7733558421,-1.753
 3558421,-4.9232597785\H,0,0.8905568758,-0.8705568758,-7.0425276922\H,0
 ,-0.8705565046,0.8905565046,-7.042527775\C,0,-0.9848184961,1.004818496
 1,0.0099998782\C,0,-0.5044883957,0.5244883957,1.2340295553\C,0,1.00481
 85643,-0.9848185643,0.0099998696\C,0,0.5244885146,-0.5044885146,1.2340
 295261\H,0,-1.7524699697,1.7724699697,0.0099999205\H,0,1.772468921,-1.
 752468921,0.0099999641\C,0,-0.9844683048,1.0044683048,2.4733171385\C,0
 ,-0.5039477114,0.5239477114,3.681276331\C,0,1.0044684211,-0.9844684211
 ,2.4733170835\C,0,0.5239479079,-0.5039479079,3.6812763217\H,0,-1.75218
 65527,1.7721865527,2.4739285326\H,0,1.7721858092,-1.7521858092,2.47392
 83796\C,0,-0.9861245177,1.0061245177,4.9435920588\C,0,-0.4963209372,0.
 5163209372,6.116356633\C,0,1.0061247659,-0.9861247659,4.9435919377\C,0
 ,0.5163212637,-0.4963212637,6.1163566075\H,0,-1.7533556504,1.773355650
 4,4.9432601504\H,0,-0.8705567426,0.8905567426,7.0625274368\H,0,0.89055
 70967,-0.8705570967,7.0625272142\H,0,1.7733555414,-1.7533555414,4.9432
 599297\C,0,10.9960521524,0.5239478476,-3.6612755801\C,0,12.0239480325,
 -0.5039480325,-3.6612755629\C,0,10.5138751537,1.0061248463,-4.92359277
 08\C,0,12.5061250889,-0.9861250889,-4.9235926697\C,0,11.0036786493,0.5
 163213507,-6.096356521\C,0,12.0163216812,-0.4963216812,-6.0963564796\C
 ,0,10.5155315689,1.0044684311,-2.4533174875\C,0,10.995511574,0.5244884
 26,-1.2140288145\C,0,12.5044685359,-0.9844685359,-2.4533173917\C,0,12.
 0244885437,-0.5044885437,-1.2140288362\H,0,9.7466440333,1.7733559667,-
 4.9232600459\H,0,9.7478133187,1.7721866813,-2.4539285815\H,0,13.272185
 9268,-1.7521859268,-2.4539284818\H,0,13.2733558421,-1.7533558421,-4.92
 32597785\H,0,12.3905568758,-0.8705568758,-7.0425276922\H,0,10.62944349
 54,0.8905565046,-7.042527775\C,0,10.5151815039,1.0048184961,0.00999987
 82\C,0,10.9955116043,0.5244883957,1.2340295553\C,0,12.5048185643,-0.98
 48185643,0.0099998696\C,0,12.0244885146,-0.5044885146,1.2340295261\H,0
 ,9.7475300303,1.7724699697,0.0099999205\H,0,13.272468921,-1.752468921,
 0.0099999641\C,0,10.5155316952,1.0044683048,2.4733171385\C,0,10.996052
 2886,0.5239477114,3.681276331\C,0,12.5044684211,-0.9844684211,2.473317
 0835\C,0,12.0239479079,-0.5039479079,3.6812763217\H,0,9.7478134473,1.7
 721865527,2.4739285326\H,0,13.2721858092,-1.7521858092,2.4739283796\C,
 0,10.5138754823,1.0061245177,4.9435920588\C,0,11.0036790628,0.51632093
 72,6.116356633\C,0,12.5061247659,-0.9861247659,4.9435919377\C,0,12.016
 3212637,-0.4963212637,6.1163566075\H,0,9.7466443496,1.7733556504,4.943
 2601504\H,0,10.6294432574,0.8905567426,7.0625274368\H,0,12.3905570967,
 -0.8705570967,7.0625272142\H,0,13.2733555414,-1.7533555414,4.943259929
 7\\Version=Fujitsu-Arm-G16RevC.01\State=1-A'\HF=-847.0198415\RMSD=3.18
 2e-09\Dipole=0.0000274,-0.0000274,0.\Quadrupole=-7.5202236,-6.93928,14
 .4595036,-18.7211984,0.,0.\PG=CS [SG(C4H4),X(C40H24)]\\@


 "PERFECTION IS NOT AN ACCIDENT"
         --  EAGLE ELECTRIC MANUFACTURING CO.,INC. NY
 Job cpu time:       0 days  2 hours 29 minutes 47.0 seconds.
 Elapsed time:       0 days  0 hours  3 minutes 57.2 seconds.
 File lengths (MBytes):  RWF=    718 Int=      0 D2E=      0 Chk=    208 Scr=      1
 Normal termination of Gaussian 16 at Wed Sep 27 17:18:15 2023.
