 Entering Gaussian System, Link 0=g16
 Initial command:
 /home/center/opt/aarch64/apps/gaussian16/c01/g16/l1.exe "/data/tmp/Gtmp/1006976/Gau-49.inp" -scrdir="/data/tmp/Gtmp/1006976/"
 Entering Link 1 = /home/center/opt/aarch64/apps/gaussian16/c01/g16/l1.exe PID=        50.
  
 Copyright (c) 1988-2019, Gaussian, Inc.  All Rights Reserved.
  
 This is part of the Gaussian(R) 16 program.  It is based on
 the Gaussian(R) 09 system (copyright 2009, Gaussian, Inc.),
 the Gaussian(R) 03 system (copyright 2003, Gaussian, Inc.),
 the Gaussian(R) 98 system (copyright 1998, Gaussian, Inc.),
 the Gaussian(R) 94 system (copyright 1995, Gaussian, Inc.),
 the Gaussian 92(TM) system (copyright 1992, Gaussian, Inc.),
 the Gaussian 90(TM) system (copyright 1990, Gaussian, Inc.),
 the Gaussian 88(TM) system (copyright 1988, Gaussian, Inc.),
 the Gaussian 86(TM) system (copyright 1986, Carnegie Mellon
 University), and the Gaussian 82(TM) system (copyright 1983,
 Carnegie Mellon University). Gaussian is a federally registered
 trademark of Gaussian, Inc.
  
 This software contains proprietary and confidential information,
 including trade secrets, belonging to Gaussian, Inc.
  
 This software is provided under written license and may be
 used, copied, transmitted, or stored only in accord with that
 written license.
  
 The following legend is applicable only to US Government
 contracts under FAR:
  
                    RESTRICTED RIGHTS LEGEND
  
 Use, reproduction and disclosure by the US Government is
 subject to restrictions as set forth in subparagraphs (a)
 and (c) of the Commercial Computer Software - Restricted
 Rights clause in FAR 52.227-19.
  
 Gaussian, Inc.
 340 Quinnipiac St., Bldg. 40, Wallingford CT 06492
  
  
 ---------------------------------------------------------------
 Warning -- This program may not be used in any manner that
 competes with the business of Gaussian, Inc. or will provide
 assistance to any competitor of Gaussian, Inc.  The licensee
 of this program is prohibited from giving any competitor of
 Gaussian, Inc. access to this program.  By using this program,
 the user acknowledges that Gaussian, Inc. is engaged in the
 business of creating and licensing software in the field of
 computational chemistry and represents and warrants to the
 licensee that it is not a competitor of Gaussian, Inc. and that
 it will not use this program in any manner prohibited above.
 ---------------------------------------------------------------
  

 Cite this work as:
 Gaussian 16, Revision C.01,
 M. J. Frisch, G. W. Trucks, H. B. Schlegel, G. E. Scuseria, 
 M. A. Robb, J. R. Cheeseman, G. Scalmani, V. Barone, 
 G. A. Petersson, H. Nakatsuji, X. Li, M. Caricato, A. V. Marenich, 
 J. Bloino, B. G. Janesko, R. Gomperts, B. Mennucci, H. P. Hratchian, 
 J. V. Ortiz, A. F. Izmaylov, J. L. Sonnenberg, D. Williams-Young, 
 F. Ding, F. Lipparini, F. Egidi, J. Goings, B. Peng, A. Petrone, 
 T. Henderson, D. Ranasinghe, V. G. Zakrzewski, J. Gao, N. Rega, 
 G. Zheng, W. Liang, M. Hada, M. Ehara, K. Toyota, R. Fukuda, 
 J. Hasegawa, M. Ishida, T. Nakajima, Y. Honda, O. Kitao, H. Nakai, 
 T. Vreven, K. Throssell, J. A. Montgomery, Jr., J. E. Peralta, 
 F. Ogliaro, M. J. Bearpark, J. J. Heyd, E. N. Brothers, K. N. Kudin, 
 V. N. Staroverov, T. A. Keith, R. Kobayashi, J. Normand, 
 K. Raghavachari, A. P. Rendell, J. C. Burant, S. S. Iyengar, 
 J. Tomasi, M. Cossi, J. M. Millam, M. Klene, C. Adamo, R. Cammi, 
 J. W. Ochterski, R. L. Martin, K. Morokuma, O. Farkas, 
 J. B. Foresman, and D. J. Fox, Gaussian, Inc., Wallingford CT, 2019.
 
 ************************************************
 Gaussian 16:  Fujitsu-Arm-G16RevC.01  3-Jul-2019
                   27-Sep-2023 
 ************************************************
 %mem=24GB
 %nproc=42
 Will use up to   42 processors via shared memory.
 -------------------------------------------------------------
 #P TEST b3lyp/6-311G** EmpiricalDispersion=GD3 counterpoise=2
 -------------------------------------------------------------
 1/38=1,62=2,172=1/1;
 2/12=2,17=6,18=5,40=1/2;
 1/38=1,53=2,62=2,63=1/22;
 3/5=4,6=6,7=101,11=2,25=1,30=1,74=-5,124=31/1,2,3;
 4//1;
 5/5=2,38=5/2;
 6/7=2,8=2,9=2,10=2,28=1/1;
 1/53=2,62=2,63=1/22;
 3/5=7,6=11,7=101,11=2,25=1,30=1,74=-5,82=7,124=31/1,2,3;
 4//1;
 5/5=2,38=5/2;
 6/7=2,8=2,9=2,10=2,28=1/1;
 1/53=2,62=2,63=1/22(-4);
 99/5=1,9=1/99;
 Leave Link    1 at Wed Sep 27 16:57:19 2023, MaxMem=  3221225472 cpu:               2.6 elap:               0.2
 (Enter /home/center/opt/aarch64/apps/gaussian16/c01/g16/l101.exe)
 ----------------------------
 pentacene_A1=0_A2=0_A3=45_t1
 ----------------------------
 Symbolic Z-matrix:
 Charge =  0 Multiplicity = 1 in supermolecule
 Charge =  0 Multiplicity = 1 in fragment      1.
 Charge =  0 Multiplicity = 1 in fragment      2.
 C(Fragment=1)        -0.50395   0.52395  -3.66128 
 C(Fragment=1)         0.52395  -0.50395  -3.66128 
 C(Fragment=1)        -0.98612   1.00612  -4.92359 
 C(Fragment=1)         1.00613  -0.98613  -4.92359 
 C(Fragment=1)        -0.49632   0.51632  -6.09636 
 C(Fragment=1)         0.51632  -0.49632  -6.09636 
 C(Fragment=1)        -0.98447   1.00447  -2.45332 
 C(Fragment=1)        -0.50449   0.52449  -1.21403 
 C(Fragment=1)         1.00447  -0.98447  -2.45332 
 C(Fragment=1)         0.52449  -0.50449  -1.21403 
 H(Fragment=1)        -1.75336   1.77336  -4.92326 
 H(Fragment=1)        -1.75219   1.77219  -2.45393 
 H(Fragment=1)         1.77219  -1.75219  -2.45393 
 H(Fragment=1)         1.77336  -1.75336  -4.92326 
 H(Fragment=1)         0.89056  -0.87056  -7.04253 
 H(Fragment=1)        -0.87056   0.89056  -7.04253 
 C(Fragment=1)        -0.98482   1.00482   0.01 
 C(Fragment=1)        -0.50449   0.52449   1.23403 
 C(Fragment=1)         1.00482  -0.98482   0.01 
 C(Fragment=1)         0.52449  -0.50449   1.23403 
 H(Fragment=1)        -1.75247   1.77247   0.01 
 H(Fragment=1)         1.77247  -1.75247   0.01 
 C(Fragment=1)        -0.98447   1.00447   2.47332 
 C(Fragment=1)        -0.50395   0.52395   3.68128 
 C(Fragment=1)         1.00447  -0.98447   2.47332 
 C(Fragment=1)         0.52395  -0.50395   3.68128 
 H(Fragment=1)        -1.75219   1.77219   2.47393 
 H(Fragment=1)         1.77219  -1.75219   2.47393 
 C(Fragment=1)        -0.98612   1.00612   4.94359 
 C(Fragment=1)        -0.49632   0.51632   6.11636 
 C(Fragment=1)         1.00612  -0.98612   4.94359 
 C(Fragment=1)         0.51632  -0.49632   6.11636 
 H(Fragment=1)        -1.75336   1.77336   4.94326 
 H(Fragment=1)        -0.87056   0.89056   7.06253 
 H(Fragment=1)         0.89056  -0.87056   7.06253 
 H(Fragment=1)         1.77336  -1.75336   4.94326 
 C(Fragment=2)         4.52395   4.27395  -3.66128 
 C(Fragment=2)         3.49605   3.24605  -3.66128 
 C(Fragment=2)         5.00612   4.75612  -4.92359 
 C(Fragment=2)         3.01387   2.76387  -4.92359 
 C(Fragment=2)         4.51632   4.26632  -6.09636 
 C(Fragment=2)         3.50368   3.25368  -6.09636 
 C(Fragment=2)         5.00447   4.75447  -2.45332 
 C(Fragment=2)         4.52449   4.27449  -1.21403 
 C(Fragment=2)         3.01553   2.76553  -2.45332 
 C(Fragment=2)         3.49551   3.24551  -1.21403 
 H(Fragment=2)         5.77336   5.52336  -4.92326 
 H(Fragment=2)         5.77219   5.52219  -2.45393 
 H(Fragment=2)         2.24781   1.99781  -2.45393 
 H(Fragment=2)         2.24664   1.99664  -4.92326 
 H(Fragment=2)         3.12944   2.87944  -7.04253 
 H(Fragment=2)         4.89056   4.64056  -7.04253 
 C(Fragment=2)         5.00482   4.75482   0.01 
 C(Fragment=2)         4.52449   4.27449   1.23403 
 C(Fragment=2)         3.01518   2.76518   0.01 
 C(Fragment=2)         3.49551   3.24551   1.23403 
 H(Fragment=2)         5.77247   5.52247   0.01 
 H(Fragment=2)         2.24753   1.99753   0.01 
 C(Fragment=2)         5.00447   4.75447   2.47332 
 C(Fragment=2)         4.52395   4.27395   3.68128 
 C(Fragment=2)         3.01553   2.76553   2.47332 
 C(Fragment=2)         3.49605   3.24605   3.68128 
 H(Fragment=2)         5.77219   5.52219   2.47393 
 H(Fragment=2)         2.24781   1.99781   2.47393 
 C(Fragment=2)         5.00612   4.75612   4.94359 
 C(Fragment=2)         4.51632   4.26632   6.11636 
 C(Fragment=2)         3.01388   2.76388   4.94359 
 C(Fragment=2)         3.50368   3.25368   6.11636 
 H(Fragment=2)         5.77336   5.52336   4.94326 
 H(Fragment=2)         4.89056   4.64056   7.06253 
 H(Fragment=2)         3.12944   2.87944   7.06253 
 H(Fragment=2)         2.24664   1.99664   4.94326 
 
 ITRead=  0  0  0  0  0  0  0  0  0  0  0  0  0  0  0  0  0  0  0  0
 ITRead=  0  0  0  0  0  0  0  0  0  0  0  0  0  0  0  0  0  0  0  0
 ITRead=  0  0  0  0  0  0  0  0  0  0  0  0  0  0  0  0  0  0  0  0
 ITRead=  0  0  0  0  0  0  0  0  0  0  0  0
 MicOpt= -1 -1 -1 -1 -1 -1 -1 -1 -1 -1 -1 -1 -1 -1 -1 -1 -1 -1 -1 -1
 MicOpt= -1 -1 -1 -1 -1 -1 -1 -1 -1 -1 -1 -1 -1 -1 -1 -1 -1 -1 -1 -1
 MicOpt= -1 -1 -1 -1 -1 -1 -1 -1 -1 -1 -1 -1 -1 -1 -1 -1 -1 -1 -1 -1
 MicOpt= -1 -1 -1 -1 -1 -1 -1 -1 -1 -1 -1 -1
 NAtoms=     72 NQM=       72 NQMF=       0 NMMI=      0 NMMIF=      0
                NMic=       0 NMicF=      0.
                    Isotopes and Nuclear Properties:
 (Nuclear quadrupole moments (NQMom) in fm**2, nuclear magnetic moments (NMagM)
  in nuclear magnetons)

  Atom         1           2           3           4           5           6           7           8           9          10
 IAtWgt=          12          12          12          12          12          12          12          12          12          12
 AtmWgt=  12.0000000  12.0000000  12.0000000  12.0000000  12.0000000  12.0000000  12.0000000  12.0000000  12.0000000  12.0000000
 NucSpn=           0           0           0           0           0           0           0           0           0           0
 AtZEff=   0.0000000   0.0000000   0.0000000   0.0000000   0.0000000   0.0000000   0.0000000   0.0000000   0.0000000   0.0000000
 NQMom=    0.0000000   0.0000000   0.0000000   0.0000000   0.0000000   0.0000000   0.0000000   0.0000000   0.0000000   0.0000000
 NMagM=    0.0000000   0.0000000   0.0000000   0.0000000   0.0000000   0.0000000   0.0000000   0.0000000   0.0000000   0.0000000
 AtZNuc=   6.0000000   6.0000000   6.0000000   6.0000000   6.0000000   6.0000000   6.0000000   6.0000000   6.0000000   6.0000000

  Atom        11          12          13          14          15          16          17          18          19          20
 IAtWgt=           1           1           1           1           1           1          12          12          12          12
 AtmWgt=   1.0078250   1.0078250   1.0078250   1.0078250   1.0078250   1.0078250  12.0000000  12.0000000  12.0000000  12.0000000
 NucSpn=           1           1           1           1           1           1           0           0           0           0
 AtZEff=   0.0000000   0.0000000   0.0000000   0.0000000   0.0000000   0.0000000   0.0000000   0.0000000   0.0000000   0.0000000
 NQMom=    0.0000000   0.0000000   0.0000000   0.0000000   0.0000000   0.0000000   0.0000000   0.0000000   0.0000000   0.0000000
 NMagM=    2.7928460   2.7928460   2.7928460   2.7928460   2.7928460   2.7928460   0.0000000   0.0000000   0.0000000   0.0000000
 AtZNuc=   1.0000000   1.0000000   1.0000000   1.0000000   1.0000000   1.0000000   6.0000000   6.0000000   6.0000000   6.0000000

  Atom        21          22          23          24          25          26          27          28          29          30
 IAtWgt=           1           1          12          12          12          12           1           1          12          12
 AtmWgt=   1.0078250   1.0078250  12.0000000  12.0000000  12.0000000  12.0000000   1.0078250   1.0078250  12.0000000  12.0000000
 NucSpn=           1           1           0           0           0           0           1           1           0           0
 AtZEff=   0.0000000   0.0000000   0.0000000   0.0000000   0.0000000   0.0000000   0.0000000   0.0000000   0.0000000   0.0000000
 NQMom=    0.0000000   0.0000000   0.0000000   0.0000000   0.0000000   0.0000000   0.0000000   0.0000000   0.0000000   0.0000000
 NMagM=    2.7928460   2.7928460   0.0000000   0.0000000   0.0000000   0.0000000   2.7928460   2.7928460   0.0000000   0.0000000
 AtZNuc=   1.0000000   1.0000000   6.0000000   6.0000000   6.0000000   6.0000000   1.0000000   1.0000000   6.0000000   6.0000000

  Atom        31          32          33          34          35          36          37          38          39          40
 IAtWgt=          12          12           1           1           1           1          12          12          12          12
 AtmWgt=  12.0000000  12.0000000   1.0078250   1.0078250   1.0078250   1.0078250  12.0000000  12.0000000  12.0000000  12.0000000
 NucSpn=           0           0           1           1           1           1           0           0           0           0
 AtZEff=   0.0000000   0.0000000   0.0000000   0.0000000   0.0000000   0.0000000   0.0000000   0.0000000   0.0000000   0.0000000
 NQMom=    0.0000000   0.0000000   0.0000000   0.0000000   0.0000000   0.0000000   0.0000000   0.0000000   0.0000000   0.0000000
 NMagM=    0.0000000   0.0000000   2.7928460   2.7928460   2.7928460   2.7928460   0.0000000   0.0000000   0.0000000   0.0000000
 AtZNuc=   6.0000000   6.0000000   1.0000000   1.0000000   1.0000000   1.0000000   6.0000000   6.0000000   6.0000000   6.0000000

  Atom        41          42          43          44          45          46          47          48          49          50
 IAtWgt=          12          12          12          12          12          12           1           1           1           1
 AtmWgt=  12.0000000  12.0000000  12.0000000  12.0000000  12.0000000  12.0000000   1.0078250   1.0078250   1.0078250   1.0078250
 NucSpn=           0           0           0           0           0           0           1           1           1           1
 AtZEff=   0.0000000   0.0000000   0.0000000   0.0000000   0.0000000   0.0000000   0.0000000   0.0000000   0.0000000   0.0000000
 NQMom=    0.0000000   0.0000000   0.0000000   0.0000000   0.0000000   0.0000000   0.0000000   0.0000000   0.0000000   0.0000000
 NMagM=    0.0000000   0.0000000   0.0000000   0.0000000   0.0000000   0.0000000   2.7928460   2.7928460   2.7928460   2.7928460
 AtZNuc=   6.0000000   6.0000000   6.0000000   6.0000000   6.0000000   6.0000000   1.0000000   1.0000000   1.0000000   1.0000000

  Atom        51          52          53          54          55          56          57          58          59          60
 IAtWgt=           1           1          12          12          12          12           1           1          12          12
 AtmWgt=   1.0078250   1.0078250  12.0000000  12.0000000  12.0000000  12.0000000   1.0078250   1.0078250  12.0000000  12.0000000
 NucSpn=           1           1           0           0           0           0           1           1           0           0
 AtZEff=   0.0000000   0.0000000   0.0000000   0.0000000   0.0000000   0.0000000   0.0000000   0.0000000   0.0000000   0.0000000
 NQMom=    0.0000000   0.0000000   0.0000000   0.0000000   0.0000000   0.0000000   0.0000000   0.0000000   0.0000000   0.0000000
 NMagM=    2.7928460   2.7928460   0.0000000   0.0000000   0.0000000   0.0000000   2.7928460   2.7928460   0.0000000   0.0000000
 AtZNuc=   1.0000000   1.0000000   6.0000000   6.0000000   6.0000000   6.0000000   1.0000000   1.0000000   6.0000000   6.0000000

  Atom        61          62          63          64          65          66          67          68          69          70
 IAtWgt=          12          12           1           1          12          12          12          12           1           1
 AtmWgt=  12.0000000  12.0000000   1.0078250   1.0078250  12.0000000  12.0000000  12.0000000  12.0000000   1.0078250   1.0078250
 NucSpn=           0           0           1           1           0           0           0           0           1           1
 AtZEff=   0.0000000   0.0000000   0.0000000   0.0000000   0.0000000   0.0000000   0.0000000   0.0000000   0.0000000   0.0000000
 NQMom=    0.0000000   0.0000000   0.0000000   0.0000000   0.0000000   0.0000000   0.0000000   0.0000000   0.0000000   0.0000000
 NMagM=    0.0000000   0.0000000   2.7928460   2.7928460   0.0000000   0.0000000   0.0000000   0.0000000   2.7928460   2.7928460
 AtZNuc=   6.0000000   6.0000000   1.0000000   1.0000000   6.0000000   6.0000000   6.0000000   6.0000000   1.0000000   1.0000000

  Atom        71          72
 IAtWgt=           1           1
 AtmWgt=   1.0078250   1.0078250
 NucSpn=           1           1
 AtZEff=   0.0000000   0.0000000
 NQMom=    0.0000000   0.0000000
 NMagM=    2.7928460   2.7928460
 AtZNuc=   1.0000000   1.0000000
 Leave Link  101 at Wed Sep 27 16:57:21 2023, MaxMem=  3221225472 cpu:               2.6 elap:               0.1
 (Enter /home/center/opt/aarch64/apps/gaussian16/c01/g16/l202.exe)
 Stoichiometry    C44H28
 Framework group  CS[SG(C4H4),X(C40H24)]
 Deg. of freedom   109
 Full point group                 CS      NOp   2
 Largest Abelian subgroup         CS      NOp   2
 Largest concise Abelian subgroup CS      NOp   2
                         Standard orientation:                         
 ---------------------------------------------------------------------
 Center     Atomic      Atomic             Coordinates (Angstroms)
 Number     Number       Type             X           Y           Z
 ---------------------------------------------------------------------
      1          6           0        0.815220   -2.740039    3.671276
      2          6           0       -0.638444   -2.740039    3.671276
      3          6           0        1.497122   -2.740039    4.933593
      4          6           0       -1.320345   -2.740039    4.933593
      5          6           0        0.804435   -2.740039    6.106357
      6          6           0       -0.627659   -2.740039    6.106357
      7          6           0        1.494779   -2.740039    2.463318
      8          6           0        0.815985   -2.740039    1.224029
      9          6           0       -1.318002   -2.740039    2.463317
     10          6           0       -0.639208   -2.740039    1.224029
     11          1           0        2.582150   -2.740039    4.933260
     12          1           0        2.580497   -2.740039    2.463929
     13          1           0       -2.403719   -2.740039    2.463929
     14          1           0       -2.405373   -2.740039    4.933260
     15          1           0       -1.156907   -2.740039    7.052528
     16          1           0        1.333683   -2.740039    7.052528
     17          6           0        1.495274   -2.740039    0.000000
     18          6           0        0.815985   -2.740039   -1.224029
     19          6           0       -1.318498   -2.740039    0.000000
     20          6           0       -0.639208   -2.740039   -1.224029
     21          1           0        2.580897   -2.740039    0.000000
     22          1           0       -2.404119   -2.740039    0.000000
     23          6           0        1.494779   -2.740039   -2.463318
     24          6           0        0.815220   -2.740039   -3.671276
     25          6           0       -1.318002   -2.740039   -2.463317
     26          6           0       -0.638444   -2.740039   -3.671276
     27          1           0        2.580497   -2.740039   -2.463929
     28          1           0       -2.403719   -2.740039   -2.463929
     29          6           0        1.497122   -2.740039   -4.933593
     30          6           0        0.804435   -2.740039   -6.106357
     31          6           0       -1.320345   -2.740039   -4.933593
     32          6           0       -0.627659   -2.740039   -6.106357
     33          1           0        2.582150   -2.740039   -4.933260
     34          1           0        1.333683   -2.740039   -7.052528
     35          1           0       -1.156907   -2.740039   -7.052528
     36          1           0       -2.405373   -2.740039   -4.933260
     37          6           0       -0.088388    3.466871    3.671276
     38          6           0       -0.088388    2.013207    3.671276
     39          6           0       -0.088388    4.148772    4.933593
     40          6           0       -0.088388    1.331305    4.933593
     41          6           0       -0.088388    3.456085    6.106357
     42          6           0       -0.088388    2.023992    6.106357
     43          6           0       -0.088388    4.146430    2.463318
     44          6           0       -0.088388    3.467635    1.224029
     45          6           0       -0.088388    1.333648    2.463317
     46          6           0       -0.088388    2.012442    1.224029
     47          1           0       -0.088388    5.233801    4.933260
     48          1           0       -0.088388    5.232147    2.463929
     49          1           0       -0.088388    0.247932    2.463929
     50          1           0       -0.088388    0.246277    4.933260
     51          1           0       -0.088388    1.494743    7.052528
     52          1           0       -0.088388    3.985334    7.052528
     53          6           0       -0.088388    4.146925    0.000000
     54          6           0       -0.088388    3.467635   -1.224029
     55          6           0       -0.088388    1.333153    0.000000
     56          6           0       -0.088388    2.012442   -1.224029
     57          1           0       -0.088388    5.232548    0.000000
     58          1           0       -0.088388    0.247531    0.000000
     59          6           0       -0.088388    4.146430   -2.463318
     60          6           0       -0.088388    3.466871   -3.671276
     61          6           0       -0.088388    1.333648   -2.463317
     62          6           0       -0.088388    2.013207   -3.671276
     63          1           0       -0.088388    5.232147   -2.463929
     64          1           0       -0.088388    0.247932   -2.463929
     65          6           0       -0.088388    4.148772   -4.933593
     66          6           0       -0.088388    3.456085   -6.106357
     67          6           0       -0.088388    1.331305   -4.933593
     68          6           0       -0.088388    2.023992   -6.106357
     69          1           0       -0.088388    5.233801   -4.933260
     70          1           0       -0.088388    3.985334   -7.052528
     71          1           0       -0.088388    1.494743   -7.052528
     72          1           0       -0.088388    0.246277   -4.933260
 ---------------------------------------------------------------------
 Rotational constants (GHZ):           0.1022153           0.0563744           0.0384464
 Leave Link  202 at Wed Sep 27 16:57:23 2023, MaxMem=  3221225472 cpu:               0.6 elap:               0.1
 (Enter /home/center/opt/aarch64/apps/gaussian16/c01/g16/l122.exe)
 Counterpoise: doing full-system calculation.
 Leave Link  122 at Wed Sep 27 16:57:25 2023, MaxMem=  3221225472 cpu:               0.3 elap:               0.0
 (Enter /home/center/opt/aarch64/apps/gaussian16/c01/g16/l301.exe)
 Standard basis: 6-311G(d,p) (5D, 7F)
 Ernie: Thresh=  0.10000D-02 Tol=  0.10000D-05 Strict=F.
 There are   528 symmetry adapted cartesian basis functions of A'  symmetry.
 There are   476 symmetry adapted cartesian basis functions of A"  symmetry.
 There are   504 symmetry adapted basis functions of A'  symmetry.
 There are   456 symmetry adapted basis functions of A"  symmetry.
   960 basis functions,  1632 primitive gaussians,  1004 cartesian basis functions
   146 alpha electrons      146 beta electrons
       nuclear repulsion energy      4592.3601406072 Hartrees.
 IExCor=  402 DFT=T Ex+Corr=B3LYP ExCW=0 ScaHFX=  0.200000
 ScaDFX=  0.800000  0.720000  1.000000  0.810000 ScalE2=  1.000000  1.000000
 IRadAn=      5 IRanWt=     -1 IRanGd=            0 ICorTp=0 IEmpDi=131
 NAtoms=   72 NActive=   72 NUniq=   40 SFac= 3.24D+00 NAtFMM=   60 NAOKFM=T Big=F
 Integral buffers will be    131072 words long.
 Raffenetti 2 integral format.
 Two-electron integral symmetry is turned on.
 R6Disp:  Grimme-D3 Dispersion energy=       -0.0775428472 Hartrees.
 Nuclear repulsion after empirical dispersion term =     4592.2825977600 Hartrees.
 Leave Link  301 at Wed Sep 27 16:57:28 2023, MaxMem=  3221225472 cpu:               1.9 elap:               0.1
 (Enter /home/center/opt/aarch64/apps/gaussian16/c01/g16/l302.exe)
 NPDir=0 NMtPBC=     1 NCelOv=     1 NCel=       1 NClECP=     1 NCelD=      1
         NCelK=      1 NCelE2=     1 NClLst=     1 CellRange=     0.0.
 One-electron integrals computed using PRISM.
 One-electron integral symmetry used in STVInt
 NBasis=   960 RedAO= T EigKep=  3.87D-05  NBF=   504   456
 NBsUse=   960 1.00D-06 EigRej= -1.00D+00 NBFU=   504   456
 Precomputing XC quadrature grid using
 IXCGrd= 4 IRadAn=           5 IRanWt=          -1 IRanGd=           0 AccXCQ= 0.00D+00.
 Generated NRdTot=       0 NPtTot=           0 NUsed=           0 NTot=          32
 NSgBfM=   991   987   987   991   991 MxSgAt=    72 MxSgA2=    72.
 Leave Link  302 at Wed Sep 27 16:57:32 2023, MaxMem=  3221225472 cpu:              58.2 elap:               1.9
 (Enter /home/center/opt/aarch64/apps/gaussian16/c01/g16/l303.exe)
 DipDrv:  MaxL=1.
 Leave Link  303 at Wed Sep 27 16:57:35 2023, MaxMem=  3221225472 cpu:              13.7 elap:               0.4
 (Enter /home/center/opt/aarch64/apps/gaussian16/c01/g16/l401.exe)
 ExpMin= 1.03D-01 ExpMax= 4.56D+03 ExpMxC= 6.82D+02 IAcc=3 IRadAn=         5 AccDes= 0.00D+00
 Harris functional with IExCor=  402 and IRadAn=       5 diagonalized for initial guess.
 HarFok:  IExCor=  402 AccDes= 0.00D+00 IRadAn=         5 IDoV= 1 UseB2=F ITyADJ=14
 ICtDFT=  3500011 ScaDFX=  1.000000  1.000000  1.000000  1.000000
 FoFCou: FMM=F IPFlag=           0 FMFlag=      100000 FMFlg1=        2000
         NFxFlg=           0 DoJE=T BraDBF=F KetDBF=T FulRan=T
         wScrn=  0.000000 ICntrl=       500 IOpCl=  0 I1Cent=   200000004 NGrid=           0
         NMat0=    1 NMatS0=      1 NMatT0=    0 NMatD0=    1 NMtDS0=    0 NMtDT0=    0
 Petite list used in FoFCou.
 Harris En= -1694.13893975278    
 JPrj=0 DoOrth=F DoCkMO=F.
 Initial guess orbital symmetries:
       Occupied  (A") (A') (A") (A') (A') (A") (A') (A") (A") (A')
                 (A") (A') (A") (A') (A") (A') (A") (A') (A") (A')
                 (A') (A") (A") (A') (A') (A') (A') (A') (A") (A')
                 (A") (A') (A") (A') (A") (A') (A") (A') (A") (A')
                 (A') (A") (A') (A") (A') (A') (A") (A") (A') (A')
                 (A") (A") (A') (A') (A') (A') (A") (A") (A') (A')
                 (A") (A") (A") (A") (A') (A') (A') (A') (A") (A")
                 (A") (A") (A') (A') (A") (A") (A') (A') (A') (A')
                 (A') (A') (A") (A") (A") (A") (A") (A") (A') (A')
                 (A') (A') (A") (A") (A') (A') (A') (A') (A") (A")
                 (A') (A') (A") (A") (A") (A") (A') (A') (A') (A')
                 (A") (A") (A') (A') (A") (A") (A') (A') (A") (A")
                 (A") (A") (A') (A') (A') (A') (A") (A") (A') (A')
                 (A") (A") (A') (A') (A") (A") (A') (A') (A') (A')
                 (A") (A") (A") (A") (A') (A')
       Virtual   (A') (A') (A") (A") (A") (A") (A') (A') (A') (A')
                 (A") (A") (A') (A') (A") (A") (A') (A") (A') (A')
                 (A') (A') (A") (A') (A') (A") (A") (A') (A") (A")
                 (A') (A') (A") (A') (A") (A') (A") (A") (A") (A')
                 (A") (A') (A') (A') (A') (A") (A") (A') (A') (A')
                 (A') (A') (A") (A") (A') (A') (A") (A') (A") (A')
                 (A") (A") (A") (A") (A') (A') (A") (A') (A") (A")
                 (A') (A") (A') (A') (A") (A') (A") (A") (A') (A")
                 (A') (A') (A') (A') (A') (A") (A') (A") (A') (A")
                 (A") (A') (A") (A") (A') (A') (A") (A") (A") (A')
                 (A') (A') (A") (A") (A') (A") (A") (A') (A') (A')
                 (A') (A') (A") (A') (A') (A") (A") (A') (A") (A')
                 (A') (A") (A") (A') (A') (A") (A') (A") (A') (A")
                 (A") (A') (A") (A") (A') (A") (A") (A') (A') (A')
                 (A") (A') (A") (A') (A") (A") (A') (A') (A') (A')
                 (A') (A') (A") (A") (A") (A') (A') (A") (A') (A')
                 (A") (A") (A') (A") (A") (A') (A") (A") (A') (A')
                 (A') (A") (A') (A") (A') (A') (A") (A") (A') (A")
                 (A') (A") (A') (A") (A') (A") (A') (A') (A') (A')
                 (A") (A") (A') (A") (A') (A') (A") (A') (A") (A")
                 (A') (A") (A') (A") (A') (A") (A') (A") (A') (A')
                 (A') (A") (A") (A") (A') (A') (A") (A") (A") (A')
                 (A') (A") (A") (A") (A') (A") (A') (A') (A') (A')
                 (A") (A') (A') (A') (A") (A") (A') (A") (A") (A')
                 (A") (A") (A') (A') (A') (A') (A") (A") (A') (A")
                 (A') (A") (A") (A") (A') (A') (A') (A") (A') (A")
                 (A') (A') (A") (A") (A") (A') (A") (A') (A") (A')
                 (A") (A') (A") (A") (A') (A') (A") (A') (A") (A")
                 (A') (A') (A') (A') (A") (A') (A') (A") (A") (A")
                 (A") (A') (A') (A') (A") (A') (A") (A") (A") (A')
                 (A") (A") (A') (A') (A') (A') (A') (A") (A') (A")
                 (A") (A") (A') (A") (A") (A") (A') (A') (A') (A')
                 (A") (A') (A") (A') (A') (A") (A') (A") (A') (A")
                 (A") (A") (A') (A') (A") (A') (A") (A") (A') (A')
                 (A') (A") (A") (A') (A") (A') (A") (A') (A") (A')
                 (A') (A") (A') (A') (A") (A') (A") (A') (A") (A')
                 (A') (A') (A') (A') (A") (A") (A") (A") (A") (A")
                 (A") (A') (A") (A") (A') (A") (A') (A') (A') (A')
                 (A") (A") (A') (A') (A') (A') (A") (A') (A') (A")
                 (A") (A') (A') (A') (A") (A') (A") (A") (A") (A')
                 (A") (A') (A") (A') (A") (A') (A') (A") (A") (A')
                 (A") (A') (A') (A') (A') (A") (A') (A") (A") (A')
                 (A') (A') (A') (A") (A") (A') (A") (A') (A") (A')
                 (A") (A") (A") (A') (A') (A") (A") (A') (A") (A")
                 (A") (A') (A") (A') (A') (A') (A") (A") (A') (A")
                 (A') (A') (A') (A') (A") (A") (A') (A") (A") (A')
                 (A") (A") (A') (A') (A") (A') (A') (A") (A") (A")
                 (A") (A') (A') (A') (A") (A') (A") (A") (A') (A')
                 (A") (A') (A') (A') (A") (A') (A") (A") (A") (A')
                 (A") (A') (A") (A") (A") (A") (A") (A') (A') (A")
                 (A') (A") (A') (A') (A") (A') (A') (A') (A") (A')
                 (A") (A') (A') (A') (A") (A") (A") (A') (A") (A')
                 (A") (A") (A') (A') (A") (A") (A') (A') (A") (A')
                 (A') (A") (A') (A') (A") (A") (A') (A") (A") (A')
                 (A") (A") (A') (A') (A') (A') (A") (A") (A") (A")
                 (A") (A') (A') (A") (A") (A') (A') (A") (A') (A')
                 (A") (A') (A') (A") (A") (A') (A') (A') (A") (A")
                 (A") (A') (A") (A') (A") (A') (A") (A') (A') (A")
                 (A') (A") (A') (A') (A") (A') (A') (A') (A") (A')
                 (A") (A') (A") (A') (A") (A') (A') (A") (A") (A')
                 (A") (A') (A') (A") (A") (A') (A") (A") (A') (A')
                 (A') (A") (A') (A") (A') (A") (A') (A') (A") (A")
                 (A") (A') (A") (A') (A') (A") (A") (A") (A') (A')
                 (A") (A') (A') (A') (A') (A") (A') (A') (A") (A")
                 (A') (A") (A') (A") (A") (A') (A") (A") (A") (A')
                 (A') (A') (A") (A') (A') (A') (A') (A") (A") (A')
                 (A') (A") (A') (A") (A") (A") (A') (A') (A') (A")
                 (A') (A") (A") (A') (A') (A") (A") (A") (A') (A')
                 (A") (A') (A') (A") (A') (A") (A') (A") (A") (A")
                 (A') (A') (A") (A') (A') (A') (A") (A") (A") (A')
                 (A') (A") (A") (A') (A') (A") (A') (A") (A') (A")
                 (A") (A") (A") (A') (A') (A') (A') (A') (A") (A")
                 (A') (A') (A") (A") (A') (A') (A") (A') (A') (A")
                 (A') (A") (A") (A') (A") (A') (A") (A') (A') (A")
                 (A') (A") (A') (A') (A") (A") (A') (A') (A') (A')
                 (A") (A') (A") (A') (A") (A") (A') (A') (A") (A")
                 (A") (A") (A') (A') (A") (A") (A') (A") (A') (A")
                 (A') (A') (A") (A") (A') (A') (A') (A') (A") (A")
                 (A") (A") (A') (A') (A") (A") (A') (A') (A') (A')
                 (A") (A") (A") (A") (A') (A') (A') (A') (A") (A")
                 (A') (A') (A") (A") (A') (A') (A") (A") (A') (A')
                 (A') (A") (A') (A")
 The electronic state of the initial guess is 1-A'.
 Leave Link  401 at Wed Sep 27 16:57:40 2023, MaxMem=  3221225472 cpu:             104.4 elap:               2.6
 (Enter /home/center/opt/aarch64/apps/gaussian16/c01/g16/l502.exe)
 Integral symmetry usage will be decided dynamically.
 Closed shell SCF:
 Using DIIS extrapolation, IDIIS=  1040.
 NGot=  3221225472 LenX=  3219153746 LenY=  3218144726
 Requested convergence on RMS density matrix=1.00D-08 within 128 cycles.
 Requested convergence on MAX density matrix=1.00D-06.
 Requested convergence on             energy=1.00D-06.
 No special actions if energy rises.
 Fock matrices will be formed incrementally for  20 cycles.
 Integral accuracy reduced to 1.0D-05 until final iterations.

 Cycle   1  Pass 0  IDiag  1:
 FoFJK:  IHMeth= 1 ICntrl=       0 DoSepK=F KAlg= 0 I1Cent=           0 FoldK=F
 IRaf= 550000000 NMat=       1 IRICut=       1 DoRegI=T DoRafI=F ISym2E= 1 IDoP0=0 IntGTp=1.
 FoFCou: FMM=F IPFlag=           0 FMFlag=      100000 FMFlg1=        2000
         NFxFlg=           0 DoJE=F BraDBF=F KetDBF=F FulRan=T
         wScrn=  0.000000 ICntrl=         0 IOpCl=  0 I1Cent=           0 NGrid=           0
         NMat0=    1 NMatS0=      1 NMatT0=    0 NMatD0=    1 NMtDS0=    0 NMtDT0=    0
 Petite list used in FoFCou.
 E= -1693.16919198503    
 DIIS: error= 4.73D-02 at cycle   1 NSaved=   1.
 NSaved= 1 IEnMin= 1 EnMin= -1693.16919198503     IErMin= 1 ErrMin= 4.73D-02
 ErrMax= 4.73D-02  0.00D+00 EMaxC= 1.00D-01 BMatC= 9.01D-01 BMatP= 9.01D-01
 IDIUse=3 WtCom= 5.27D-01 WtEn= 4.73D-01
 Coeff-Com:  0.100D+01
 Coeff-En:   0.100D+01
 Coeff:      0.100D+01
 Gap=     0.067 Goal=   None    Shift=    0.000
 GapD=    0.067 DampG=0.500 DampE=0.500 DampFc=0.2500 IDamp=-1.
 Damping current iteration by 2.50D-01
 RMSDP=1.71D-03 MaxDP=8.40D-02              OVMax= 1.56D-01

 Cycle   2  Pass 0  IDiag  1:
 RMSU=  4.13D-04    CP:  9.82D-01
 E= -1693.47929677376     Delta-E=       -0.310104788731 Rises=F Damp=T
 DIIS: error= 2.77D-02 at cycle   2 NSaved=   2.
 NSaved= 2 IEnMin= 2 EnMin= -1693.47929677376     IErMin= 2 ErrMin= 2.77D-02
 ErrMax= 2.77D-02  0.00D+00 EMaxC= 1.00D-01 BMatC= 2.99D-01 BMatP= 9.01D-01
 IDIUse=3 WtCom= 7.23D-01 WtEn= 2.77D-01
 Coeff-Com: -0.121D+01 0.221D+01
 Coeff-En:   0.000D+00 0.100D+01
 Coeff:     -0.876D+00 0.188D+01
 Gap=     0.065 Goal=   None    Shift=    0.000
 RMSDP=6.99D-04 MaxDP=3.37D-02 DE=-3.10D-01 OVMax= 9.06D-02

 Cycle   3  Pass 0  IDiag  1:
 RMSU=  4.36D-04    CP:  9.56D-01  2.27D+00
 E= -1694.04681129856     Delta-E=       -0.567514524797 Rises=F Damp=F
 DIIS: error= 4.75D-03 at cycle   3 NSaved=   3.
 NSaved= 3 IEnMin= 3 EnMin= -1694.04681129856     IErMin= 3 ErrMin= 4.75D-03
 ErrMax= 4.75D-03  0.00D+00 EMaxC= 1.00D-01 BMatC= 1.14D-02 BMatP= 2.99D-01
 IDIUse=3 WtCom= 9.53D-01 WtEn= 4.75D-02
 Coeff-Com: -0.216D+00 0.466D+00 0.750D+00
 Coeff-En:   0.000D+00 0.000D+00 0.100D+01
 Coeff:     -0.206D+00 0.444D+00 0.762D+00
 Gap=     0.069 Goal=   None    Shift=    0.000
 RMSDP=2.29D-04 MaxDP=1.40D-02 DE=-5.68D-01 OVMax= 1.03D-01

 Cycle   4  Pass 0  IDiag  1:
 RMSU=  1.98D-04    CP:  9.58D-01  2.14D+00  7.64D-01
 E= -1694.04251910100     Delta-E=        0.004292197559 Rises=F Damp=F
 DIIS: error= 6.97D-03 at cycle   4 NSaved=   4.
 NSaved= 4 IEnMin= 3 EnMin= -1694.04681129856     IErMin= 3 ErrMin= 4.75D-03
 ErrMax= 6.97D-03  0.00D+00 EMaxC= 1.00D-01 BMatC= 1.34D-02 BMatP= 1.14D-02
 IDIUse=3 WtCom= 1.07D-01 WtEn= 8.93D-01
 Coeff-Com: -0.200D-01 0.830D-01 0.536D+00 0.401D+00
 Coeff-En:   0.000D+00 0.000D+00 0.565D+00 0.435D+00
 Coeff:     -0.214D-02 0.888D-02 0.562D+00 0.431D+00
 Gap=     0.066 Goal=   None    Shift=    0.000
 RMSDP=1.46D-04 MaxDP=1.02D-02 DE= 4.29D-03 OVMax= 9.03D-02

 Cycle   5  Pass 0  IDiag  1:
 RMSU=  7.70D-05    CP:  9.58D-01  2.13D+00  8.37D-01  3.98D-01
 E= -1694.05731921681     Delta-E=       -0.014800115814 Rises=F Damp=F
 DIIS: error= 2.42D-03 at cycle   5 NSaved=   5.
 NSaved= 5 IEnMin= 5 EnMin= -1694.05731921681     IErMin= 5 ErrMin= 2.42D-03
 ErrMax= 2.42D-03  0.00D+00 EMaxC= 1.00D-01 BMatC= 1.23D-03 BMatP= 1.14D-02
 IDIUse=3 WtCom= 9.76D-01 WtEn= 2.42D-02
 Coeff-Com: -0.167D-01 0.351D-01 0.242D+00 0.251D+00 0.489D+00
 Coeff-En:   0.000D+00 0.000D+00 0.000D+00 0.613D-01 0.939D+00
 Coeff:     -0.163D-01 0.342D-01 0.236D+00 0.247D+00 0.500D+00
 Gap=     0.067 Goal=   None    Shift=    0.000
 RMSDP=4.94D-05 MaxDP=3.61D-03 DE=-1.48D-02 OVMax= 3.52D-02

 Cycle   6  Pass 0  IDiag  1:
 RMSU=  2.60D-05    CP:  9.58D-01  2.16D+00  8.37D-01  5.04D-01  5.59D-01
 E= -1694.05845458496     Delta-E=       -0.001135368147 Rises=F Damp=F
 DIIS: error= 1.22D-03 at cycle   6 NSaved=   6.
 NSaved= 6 IEnMin= 6 EnMin= -1694.05845458496     IErMin= 6 ErrMin= 1.22D-03
 ErrMax= 1.22D-03  0.00D+00 EMaxC= 1.00D-01 BMatC= 2.69D-04 BMatP= 1.23D-03
 IDIUse=3 WtCom= 9.88D-01 WtEn= 1.22D-02
 Coeff-Com: -0.910D-02 0.132D-01 0.100D+00 0.125D+00 0.369D+00 0.401D+00
 Coeff-En:   0.000D+00 0.000D+00 0.000D+00 0.000D+00 0.185D+00 0.815D+00
 Coeff:     -0.899D-02 0.131D-01 0.989D-01 0.124D+00 0.367D+00 0.407D+00
 Gap=     0.066 Goal=   None    Shift=    0.000
 RMSDP=2.13D-05 MaxDP=1.69D-03 DE=-1.14D-03 OVMax= 1.42D-02

 Cycle   7  Pass 0  IDiag  1:
 RMSU=  8.19D-06    CP:  9.58D-01  2.16D+00  8.41D-01  4.89D-01  6.41D-01
                    CP:  2.98D-01
 E= -1694.05875609278     Delta-E=       -0.000301507824 Rises=F Damp=F
 DIIS: error= 3.23D-04 at cycle   7 NSaved=   7.
 NSaved= 7 IEnMin= 7 EnMin= -1694.05875609278     IErMin= 7 ErrMin= 3.23D-04
 ErrMax= 3.23D-04  0.00D+00 EMaxC= 1.00D-01 BMatC= 2.10D-05 BMatP= 2.69D-04
 IDIUse=3 WtCom= 9.97D-01 WtEn= 3.23D-03
 Coeff-Com: -0.415D-02 0.524D-02 0.520D-01 0.673D-01 0.214D+00 0.282D+00
 Coeff-Com:  0.384D+00
 Coeff-En:   0.000D+00 0.000D+00 0.000D+00 0.000D+00 0.000D+00 0.480D-01
 Coeff-En:   0.952D+00
 Coeff:     -0.413D-02 0.522D-02 0.518D-01 0.671D-01 0.214D+00 0.281D+00
 Coeff:      0.385D+00
 Gap=     0.066 Goal=   None    Shift=    0.000
 RMSDP=5.52D-06 MaxDP=3.32D-04 DE=-3.02D-04 OVMax= 2.56D-03

 Initial convergence to 1.0D-05 achieved.  Increase integral accuracy.
 Cycle   8  Pass 1  IDiag  1:
 E= -1694.05840803255     Delta-E=        0.000348060233 Rises=F Damp=F
 DIIS: error= 9.82D-04 at cycle   1 NSaved=   1.
 NSaved= 1 IEnMin= 1 EnMin= -1694.05840803255     IErMin= 1 ErrMin= 9.82D-04
 ErrMax= 9.82D-04  0.00D+00 EMaxC= 1.00D-01 BMatC= 5.11D-05 BMatP= 5.11D-05
 IDIUse=3 WtCom= 9.90D-01 WtEn= 9.82D-03
 Coeff-Com:  0.100D+01
 Coeff-En:   0.100D+01
 Coeff:      0.100D+01
 Gap=     0.066 Goal=   None    Shift=    0.000
 RMSDP=5.52D-06 MaxDP=3.32D-04 DE= 3.48D-04 OVMax= 1.72D-03

 Cycle   9  Pass 1  IDiag  1:
 RMSU=  3.17D-04    CP:  9.99D-01
 E= -1694.05845654931     Delta-E=       -0.000048516759 Rises=F Damp=F
 DIIS: error= 7.44D-05 at cycle   2 NSaved=   2.
 NSaved= 2 IEnMin= 2 EnMin= -1694.05845654931     IErMin= 2 ErrMin= 7.44D-05
 ErrMax= 7.44D-05  0.00D+00 EMaxC= 1.00D-01 BMatC= 1.87D-06 BMatP= 5.11D-05
 IDIUse=1 WtCom= 1.00D+00 WtEn= 0.00D+00
 Coeff-Com:  0.440D-01 0.956D+00
 Coeff:      0.440D-01 0.956D+00
 Gap=     0.066 Goal=   None    Shift=    0.000
 RMSDP=5.60D-06 MaxDP=3.12D-04 DE=-4.85D-05 OVMax= 2.33D-03

 Cycle  10  Pass 1  IDiag  1:
 RMSU=  4.43D-06    CP:  9.99D-01  1.01D+00
 E= -1694.05844864573     Delta-E=        0.000007903579 Rises=F Damp=F
 DIIS: error= 1.85D-04 at cycle   3 NSaved=   3.
 NSaved= 3 IEnMin= 2 EnMin= -1694.05845654931     IErMin= 2 ErrMin= 7.44D-05
 ErrMax= 1.85D-04  0.00D+00 EMaxC= 1.00D-01 BMatC= 8.32D-06 BMatP= 1.87D-06
 IDIUse=3 WtCom= 4.24D-01 WtEn= 5.76D-01
 Coeff-Com: -0.321D-02 0.684D+00 0.320D+00
 Coeff-En:   0.000D+00 0.771D+00 0.229D+00
 Coeff:     -0.136D-02 0.734D+00 0.268D+00
 Gap=     0.066 Goal=   None    Shift=    0.000
 RMSDP=2.81D-06 MaxDP=2.06D-04 DE= 7.90D-06 OVMax= 1.75D-03

 Cycle  11  Pass 1  IDiag  1:
 RMSU=  9.33D-07    CP:  9.99D-01  1.01D+00  4.02D-01
 E= -1694.05845833155     Delta-E=       -0.000009685819 Rises=F Damp=F
 DIIS: error= 2.60D-05 at cycle   4 NSaved=   4.
 NSaved= 4 IEnMin= 4 EnMin= -1694.05845833155     IErMin= 4 ErrMin= 2.60D-05
 ErrMax= 2.60D-05  0.00D+00 EMaxC= 1.00D-01 BMatC= 2.84D-07 BMatP= 1.87D-06
 IDIUse=1 WtCom= 1.00D+00 WtEn= 0.00D+00
 Coeff-Com: -0.385D-02 0.450D+00 0.162D+00 0.392D+00
 Coeff:     -0.385D-02 0.450D+00 0.162D+00 0.392D+00
 Gap=     0.066 Goal=   None    Shift=    0.000
 RMSDP=5.22D-07 MaxDP=2.72D-05 DE=-9.69D-06 OVMax= 1.27D-04

 Cycle  12  Pass 1  IDiag  1:
 RMSU=  3.54D-07    CP:  9.99D-01  1.01D+00  3.38D-01  7.27D-01
 E= -1694.05845860806     Delta-E=       -0.000000276511 Rises=F Damp=F
 DIIS: error= 5.29D-06 at cycle   5 NSaved=   5.
 NSaved= 5 IEnMin= 5 EnMin= -1694.05845860806     IErMin= 5 ErrMin= 5.29D-06
 ErrMax= 5.29D-06  0.00D+00 EMaxC= 1.00D-01 BMatC= 3.56D-09 BMatP= 2.84D-07
 IDIUse=1 WtCom= 1.00D+00 WtEn= 0.00D+00
 Coeff-Com: -0.220D-02 0.250D+00 0.895D-01 0.231D+00 0.432D+00
 Coeff:     -0.220D-02 0.250D+00 0.895D-01 0.231D+00 0.432D+00
 Gap=     0.066 Goal=   None    Shift=    0.000
 RMSDP=9.19D-08 MaxDP=4.45D-06 DE=-2.77D-07 OVMax= 4.01D-05

 Cycle  13  Pass 1  IDiag  1:
 RMSU=  8.40D-08    CP:  9.99D-01  1.01D+00  3.41D-01  7.34D-01  9.09D-01
 E= -1694.05845861205     Delta-E=       -0.000000003987 Rises=F Damp=F
 DIIS: error= 2.10D-06 at cycle   6 NSaved=   6.
 NSaved= 6 IEnMin= 6 EnMin= -1694.05845861205     IErMin= 6 ErrMin= 2.10D-06
 ErrMax= 2.10D-06  0.00D+00 EMaxC= 1.00D-01 BMatC= 6.50D-10 BMatP= 3.56D-09
 IDIUse=1 WtCom= 1.00D+00 WtEn= 0.00D+00
 Coeff-Com: -0.807D-03 0.887D-01 0.319D-01 0.855D-01 0.295D+00 0.500D+00
 Coeff:     -0.807D-03 0.887D-01 0.319D-01 0.855D-01 0.295D+00 0.500D+00
 Gap=     0.066 Goal=   None    Shift=    0.000
 RMSDP=2.84D-08 MaxDP=1.73D-06 DE=-3.99D-09 OVMax= 1.42D-05

 Cycle  14  Pass 1  IDiag  1:
 RMSU=  1.74D-08    CP:  9.99D-01  1.01D+00  3.42D-01  7.28D-01  9.41D-01
                    CP:  8.02D-01
 E= -1694.05845861280     Delta-E=       -0.000000000757 Rises=F Damp=F
 DIIS: error= 1.75D-07 at cycle   7 NSaved=   7.
 NSaved= 7 IEnMin= 7 EnMin= -1694.05845861280     IErMin= 7 ErrMin= 1.75D-07
 ErrMax= 1.75D-07  0.00D+00 EMaxC= 1.00D-01 BMatC= 1.48D-11 BMatP= 6.50D-10
 IDIUse=1 WtCom= 1.00D+00 WtEn= 0.00D+00
 Coeff-Com: -0.977D-04 0.996D-02 0.313D-02 0.122D-01 0.670D-01 0.174D+00
 Coeff-Com:  0.733D+00
 Coeff:     -0.977D-04 0.996D-02 0.313D-02 0.122D-01 0.670D-01 0.174D+00
 Coeff:      0.733D+00
 Gap=     0.066 Goal=   None    Shift=    0.000
 RMSDP=7.23D-09 MaxDP=4.24D-07 DE=-7.57D-10 OVMax= 2.12D-06

 SCF Done:  E(RB3LYP) =  -1694.05845861     A.U. after   14 cycles
            NFock= 14  Conv=0.72D-08     -V/T= 2.0044
 KE= 1.686673876555D+03 PE=-1.311502777795D+04 EE= 5.142012845024D+03
 Leave Link  502 at Wed Sep 27 16:59:18 2023, MaxMem=  3221225472 cpu:            3437.6 elap:              96.3
 (Enter /home/center/opt/aarch64/apps/gaussian16/c01/g16/l601.exe)
 Copying SCF densities to generalized density rwf, IOpCl= 0 IROHF=0.

 **********************************************************************

            Population analysis using the SCF Density.

 **********************************************************************

 Orbital symmetries:
       Occupied  (A") (A') (A') (A") (A") (A') (A') (A") (A') (A')
                 (A") (A') (A") (A') (A") (A') (A") (A') (A') (A")
                 (A") (A') (A") (A') (A") (A') (A') (A") (A") (A')
                 (A") (A') (A') (A") (A') (A") (A') (A') (A") (A')
                 (A") (A') (A") (A') (A') (A') (A") (A") (A') (A')
                 (A") (A") (A') (A') (A') (A") (A') (A") (A') (A')
                 (A") (A") (A") (A") (A') (A') (A') (A') (A") (A")
                 (A") (A') (A") (A") (A') (A') (A") (A') (A') (A')
                 (A') (A") (A") (A') (A") (A") (A') (A") (A') (A")
                 (A') (A') (A') (A") (A") (A') (A") (A") (A') (A')
                 (A') (A") (A') (A') (A') (A') (A") (A") (A") (A')
                 (A') (A') (A") (A") (A") (A") (A") (A') (A") (A')
                 (A') (A') (A') (A") (A') (A") (A') (A") (A") (A")
                 (A') (A") (A') (A') (A") (A') (A") (A') (A') (A')
                 (A") (A") (A") (A") (A') (A')
       Virtual   (A') (A') (A") (A") (A") (A") (A') (A') (A') (A")
                 (A') (A') (A") (A') (A') (A") (A') (A') (A") (A")
                 (A') (A') (A") (A") (A") (A') (A') (A') (A") (A")
                 (A") (A') (A") (A') (A') (A") (A") (A') (A") (A')
                 (A') (A') (A") (A') (A") (A') (A") (A') (A") (A')
                 (A") (A') (A') (A') (A') (A') (A') (A") (A") (A')
                 (A") (A") (A") (A") (A') (A') (A") (A") (A") (A')
                 (A') (A') (A") (A') (A") (A') (A") (A') (A") (A')
                 (A") (A') (A') (A') (A') (A') (A") (A") (A') (A")
                 (A") (A") (A') (A') (A') (A') (A") (A') (A') (A")
                 (A") (A") (A") (A') (A") (A') (A") (A') (A") (A")
                 (A') (A') (A") (A") (A') (A") (A') (A') (A') (A')
                 (A") (A') (A") (A') (A') (A") (A') (A') (A') (A")
                 (A') (A") (A") (A') (A") (A') (A") (A') (A') (A")
                 (A') (A") (A') (A") (A') (A') (A") (A') (A") (A")
                 (A') (A") (A") (A') (A") (A') (A') (A") (A') (A")
                 (A') (A') (A") (A") (A') (A") (A") (A') (A") (A')
                 (A") (A') (A') (A') (A") (A') (A') (A') (A") (A")
                 (A") (A') (A') (A") (A") (A') (A') (A") (A') (A")
                 (A') (A") (A") (A") (A') (A') (A') (A") (A") (A')
                 (A') (A") (A') (A") (A') (A') (A") (A') (A") (A')
                 (A') (A") (A") (A') (A") (A') (A") (A") (A') (A')
                 (A") (A") (A") (A') (A") (A') (A') (A") (A') (A')
                 (A') (A") (A') (A") (A") (A') (A") (A') (A") (A')
                 (A') (A") (A') (A") (A') (A') (A") (A") (A") (A')
                 (A") (A') (A") (A') (A') (A") (A') (A") (A") (A')
                 (A') (A") (A') (A') (A") (A') (A') (A") (A") (A")
                 (A') (A") (A") (A') (A') (A") (A') (A") (A") (A')
                 (A") (A') (A') (A") (A') (A") (A') (A") (A') (A")
                 (A') (A') (A") (A") (A') (A") (A') (A') (A") (A')
                 (A") (A") (A") (A") (A') (A") (A') (A') (A') (A')
                 (A") (A') (A') (A") (A') (A") (A") (A') (A") (A")
                 (A') (A") (A') (A') (A') (A") (A') (A") (A") (A')
                 (A") (A") (A') (A") (A') (A') (A") (A") (A') (A')
                 (A") (A') (A') (A') (A") (A") (A') (A') (A") (A")
                 (A') (A") (A') (A") (A') (A') (A') (A') (A') (A")
                 (A') (A") (A') (A") (A') (A") (A") (A") (A") (A')
                 (A") (A") (A') (A") (A') (A") (A") (A') (A") (A')
                 (A') (A') (A") (A') (A") (A') (A') (A') (A") (A')
                 (A') (A') (A") (A") (A') (A") (A") (A') (A") (A')
                 (A') (A") (A") (A') (A") (A') (A') (A") (A') (A")
                 (A') (A') (A") (A") (A') (A') (A') (A") (A') (A")
                 (A') (A") (A') (A') (A") (A') (A") (A") (A') (A')
                 (A") (A") (A") (A') (A') (A') (A") (A") (A") (A")
                 (A') (A') (A') (A") (A") (A') (A") (A") (A') (A')
                 (A") (A') (A") (A') (A") (A') (A") (A') (A") (A')
                 (A") (A") (A') (A') (A") (A') (A") (A') (A') (A")
                 (A') (A') (A") (A') (A") (A") (A") (A") (A') (A')
                 (A") (A') (A') (A") (A') (A') (A") (A") (A') (A")
                 (A") (A") (A") (A') (A") (A") (A") (A') (A") (A')
                 (A') (A") (A') (A') (A") (A') (A') (A') (A") (A")
                 (A') (A') (A") (A') (A') (A") (A') (A") (A') (A")
                 (A") (A") (A") (A') (A') (A') (A") (A') (A') (A")
                 (A") (A") (A') (A') (A") (A") (A') (A") (A') (A')
                 (A") (A") (A') (A') (A') (A") (A") (A") (A') (A")
                 (A") (A') (A") (A') (A") (A') (A') (A") (A') (A')
                 (A") (A') (A") (A') (A") (A') (A") (A') (A") (A')
                 (A") (A') (A') (A') (A") (A') (A") (A') (A') (A")
                 (A') (A") (A") (A') (A") (A') (A') (A") (A') (A")
                 (A') (A") (A") (A") (A") (A') (A") (A') (A') (A")
                 (A') (A') (A') (A') (A') (A') (A") (A") (A') (A")
                 (A") (A') (A') (A') (A") (A') (A") (A") (A') (A")
                 (A') (A') (A') (A") (A") (A") (A') (A') (A") (A')
                 (A") (A") (A') (A") (A') (A") (A') (A') (A') (A")
                 (A') (A") (A') (A') (A") (A") (A") (A") (A') (A')
                 (A") (A") (A') (A') (A') (A') (A") (A') (A') (A")
                 (A") (A') (A") (A') (A") (A") (A') (A') (A") (A')
                 (A') (A") (A") (A') (A") (A') (A") (A") (A') (A')
                 (A') (A') (A") (A") (A') (A") (A') (A") (A") (A")
                 (A') (A') (A") (A') (A') (A') (A") (A") (A") (A')
                 (A') (A") (A') (A") (A') (A") (A') (A") (A') (A")
                 (A") (A") (A') (A") (A') (A') (A') (A") (A') (A")
                 (A') (A") (A') (A') (A") (A') (A') (A") (A') (A")
                 (A') (A") (A") (A') (A") (A') (A') (A") (A") (A')
                 (A') (A") (A') (A") (A') (A') (A") (A') (A') (A")
                 (A') (A') (A") (A') (A") (A") (A') (A') (A") (A")
                 (A") (A') (A") (A") (A') (A") (A') (A") (A') (A")
                 (A') (A') (A") (A") (A') (A') (A') (A') (A") (A")
                 (A") (A") (A') (A') (A") (A') (A") (A') (A') (A')
                 (A") (A") (A") (A") (A') (A') (A') (A") (A') (A")
                 (A') (A") (A') (A') (A") (A") (A') (A') (A") (A')
                 (A') (A") (A') (A")
 The electronic state is 1-A'.
 Alpha  occ. eigenvalues --  -10.19580 -10.19579 -10.19542 -10.19541 -10.19473
 Alpha  occ. eigenvalues --  -10.19473 -10.19434 -10.19434 -10.18590 -10.18587
 Alpha  occ. eigenvalues --  -10.18536 -10.18536 -10.18535 -10.18535 -10.18436
 Alpha  occ. eigenvalues --  -10.18436 -10.18415 -10.18415 -10.18368 -10.18368
 Alpha  occ. eigenvalues --  -10.18337 -10.18337 -10.18119 -10.18119 -10.18069
 Alpha  occ. eigenvalues --  -10.18069 -10.18031 -10.18030 -10.17954 -10.17954
 Alpha  occ. eigenvalues --  -10.17184 -10.17184 -10.17124 -10.17115 -10.17115
 Alpha  occ. eigenvalues --  -10.17112 -10.17112 -10.17043 -10.17028 -10.17028
 Alpha  occ. eigenvalues --  -10.17006 -10.17005 -10.16926 -10.16926  -0.89999
 Alpha  occ. eigenvalues --   -0.88520  -0.88500  -0.87066  -0.86173  -0.84760
 Alpha  occ. eigenvalues --   -0.83032  -0.81632  -0.80429  -0.79133  -0.78979
 Alpha  occ. eigenvalues --   -0.78902  -0.77741  -0.77494  -0.76571  -0.75181
 Alpha  occ. eigenvalues --   -0.74873  -0.73478  -0.73469  -0.72096  -0.69781
 Alpha  occ. eigenvalues --   -0.68384  -0.67948  -0.66554  -0.63319  -0.62951
 Alpha  occ. eigenvalues --   -0.61928  -0.61685  -0.61589  -0.60527  -0.60245
 Alpha  occ. eigenvalues --   -0.59864  -0.59116  -0.58478  -0.58258  -0.56901
 Alpha  occ. eigenvalues --   -0.53291  -0.53134  -0.52853  -0.51920  -0.51749
 Alpha  occ. eigenvalues --   -0.51509  -0.50199  -0.49090  -0.48826  -0.47750
 Alpha  occ. eigenvalues --   -0.47700  -0.46646  -0.46365  -0.46104  -0.46068
 Alpha  occ. eigenvalues --   -0.45338  -0.44789  -0.44681  -0.44504  -0.43717
 Alpha  occ. eigenvalues --   -0.43159  -0.43101  -0.42400  -0.42357  -0.42130
 Alpha  occ. eigenvalues --   -0.41963  -0.41749  -0.41301  -0.40971  -0.40963
 Alpha  occ. eigenvalues --   -0.40732  -0.40590  -0.40222  -0.39878  -0.39620
 Alpha  occ. eigenvalues --   -0.38806  -0.38743  -0.37400  -0.37397  -0.36894
 Alpha  occ. eigenvalues --   -0.36094  -0.35971  -0.35592  -0.34685  -0.34630
 Alpha  occ. eigenvalues --   -0.34348  -0.33616  -0.33515  -0.33297  -0.32910
 Alpha  occ. eigenvalues --   -0.32321  -0.32176  -0.32083  -0.30779  -0.30302
 Alpha  occ. eigenvalues --   -0.29039  -0.28852  -0.27660  -0.27251  -0.25819
 Alpha  occ. eigenvalues --   -0.25061  -0.23604  -0.23204  -0.21779  -0.18487
 Alpha  occ. eigenvalues --   -0.17034
 Alpha virt. eigenvalues --   -0.10394  -0.08956  -0.05082  -0.03686  -0.03397
 Alpha virt. eigenvalues --   -0.01979  -0.00765   0.00622   0.01467   0.01734
 Alpha virt. eigenvalues --    0.02517   0.02827   0.03109   0.03742   0.03980
 Alpha virt. eigenvalues --    0.03992   0.04660   0.05349   0.05782   0.05903
 Alpha virt. eigenvalues --    0.05999   0.06496   0.07273   0.07695   0.07738
 Alpha virt. eigenvalues --    0.07867   0.08564   0.08868   0.09061   0.09573
 Alpha virt. eigenvalues --    0.09730   0.09841   0.10749   0.10819   0.11208
 Alpha virt. eigenvalues --    0.11652   0.12522   0.12734   0.13473   0.13514
 Alpha virt. eigenvalues --    0.14267   0.14875   0.14982   0.15629   0.17466
 Alpha virt. eigenvalues --    0.17869   0.18352   0.18614   0.18824   0.19150
 Alpha virt. eigenvalues --    0.19527   0.20152   0.22324   0.22362   0.23620
 Alpha virt. eigenvalues --    0.23819   0.23853   0.24436   0.25074   0.25183
 Alpha virt. eigenvalues --    0.25217   0.26245   0.27009   0.27034   0.27238
 Alpha virt. eigenvalues --    0.27691   0.27867   0.28119   0.28660   0.28748
 Alpha virt. eigenvalues --    0.28951   0.29387   0.29538   0.30123   0.30128
 Alpha virt. eigenvalues --    0.30196   0.30631   0.31291   0.31638   0.32044
 Alpha virt. eigenvalues --    0.32268   0.34060   0.34497   0.35101   0.35217
 Alpha virt. eigenvalues --    0.35311   0.35686   0.35895   0.36044   0.36470
 Alpha virt. eigenvalues --    0.36997   0.37192   0.37631   0.38352   0.38391
 Alpha virt. eigenvalues --    0.38596   0.38691   0.38925   0.38994   0.39064
 Alpha virt. eigenvalues --    0.39237   0.39566   0.39673   0.39776   0.39932
 Alpha virt. eigenvalues --    0.40004   0.40193   0.40566   0.41363   0.41466
 Alpha virt. eigenvalues --    0.41937   0.42492   0.42493   0.42504   0.42585
 Alpha virt. eigenvalues --    0.42657   0.42709   0.42980   0.43219   0.43610
 Alpha virt. eigenvalues --    0.43854   0.43934   0.44349   0.44455   0.44769
 Alpha virt. eigenvalues --    0.44824   0.45130   0.45290   0.45382   0.45780
 Alpha virt. eigenvalues --    0.45937   0.46118   0.46255   0.46527   0.46736
 Alpha virt. eigenvalues --    0.46909   0.47224   0.47342   0.47683   0.47847
 Alpha virt. eigenvalues --    0.48131   0.48144   0.48629   0.49068   0.49388
 Alpha virt. eigenvalues --    0.49544   0.50043   0.50119   0.50228   0.50334
 Alpha virt. eigenvalues --    0.50347   0.50737   0.51062   0.51257   0.51574
 Alpha virt. eigenvalues --    0.51835   0.51914   0.52739   0.53657   0.54123
 Alpha virt. eigenvalues --    0.54727   0.54774   0.54811   0.55265   0.55438
 Alpha virt. eigenvalues --    0.56135   0.57426   0.57606   0.57652   0.57918
 Alpha virt. eigenvalues --    0.58389   0.58743   0.58992   0.59105   0.59319
 Alpha virt. eigenvalues --    0.59896   0.60651   0.61103   0.61129   0.61450
 Alpha virt. eigenvalues --    0.61679   0.61919   0.62059   0.62121   0.62549
 Alpha virt. eigenvalues --    0.62692   0.62913   0.63252   0.63571   0.63587
 Alpha virt. eigenvalues --    0.64003   0.64023   0.64858   0.65224   0.65721
 Alpha virt. eigenvalues --    0.66213   0.66382   0.66390   0.66487   0.66663
 Alpha virt. eigenvalues --    0.67196   0.67435   0.69476   0.70045   0.70851
 Alpha virt. eigenvalues --    0.71131   0.71196   0.71319   0.71728   0.72263
 Alpha virt. eigenvalues --    0.72668   0.72898   0.73059   0.73404   0.73720
 Alpha virt. eigenvalues --    0.74133   0.74635   0.75560   0.75745   0.76089
 Alpha virt. eigenvalues --    0.76235   0.77185   0.77588   0.77613   0.77780
 Alpha virt. eigenvalues --    0.78439   0.79135   0.79355   0.79459   0.80581
 Alpha virt. eigenvalues --    0.80652   0.80948   0.81507   0.81542   0.82238
 Alpha virt. eigenvalues --    0.82359   0.82683   0.82941   0.83299   0.83583
 Alpha virt. eigenvalues --    0.84173   0.84329   0.85086   0.85299   0.85662
 Alpha virt. eigenvalues --    0.86583   0.86864   0.87518   0.87833   0.88274
 Alpha virt. eigenvalues --    0.89867   0.90195   0.90508   0.90516   0.90880
 Alpha virt. eigenvalues --    0.91380   0.92137   0.93208   0.93408   0.94464
 Alpha virt. eigenvalues --    0.94567   0.94840   0.95550   0.96275   0.96324
 Alpha virt. eigenvalues --    0.96731   0.96979   0.97024   0.97157   0.98106
 Alpha virt. eigenvalues --    0.98693   0.99291   0.99351   0.99627   1.00319
 Alpha virt. eigenvalues --    1.00352   1.01124   1.01849   1.02010   1.02272
 Alpha virt. eigenvalues --    1.02383   1.03496   1.03545   1.03909   1.04419
 Alpha virt. eigenvalues --    1.04732   1.04794   1.05246   1.05253   1.05533
 Alpha virt. eigenvalues --    1.06138   1.06255   1.06352   1.06523   1.06597
 Alpha virt. eigenvalues --    1.06911   1.06969   1.07136   1.08226   1.08314
 Alpha virt. eigenvalues --    1.09223   1.09472   1.09508   1.10290   1.10419
 Alpha virt. eigenvalues --    1.10858   1.11138   1.11908   1.12664   1.12791
 Alpha virt. eigenvalues --    1.12905   1.13213   1.13666   1.13927   1.14031
 Alpha virt. eigenvalues --    1.14896   1.15311   1.15917   1.16178   1.17168
 Alpha virt. eigenvalues --    1.17232   1.17844   1.18325   1.19062   1.20907
 Alpha virt. eigenvalues --    1.21064   1.22323   1.22727   1.22939   1.23108
 Alpha virt. eigenvalues --    1.24332   1.25467   1.27346   1.27706   1.29877
 Alpha virt. eigenvalues --    1.30078   1.30778   1.31624   1.32250   1.32958
 Alpha virt. eigenvalues --    1.34590   1.35459   1.35815   1.36777   1.36993
 Alpha virt. eigenvalues --    1.38862   1.39370   1.39481   1.39972   1.40564
 Alpha virt. eigenvalues --    1.40638   1.40942   1.40993   1.41646   1.42209
 Alpha virt. eigenvalues --    1.42666   1.43324   1.44082   1.44241   1.44529
 Alpha virt. eigenvalues --    1.45275   1.45833   1.46511   1.46858   1.47201
 Alpha virt. eigenvalues --    1.47670   1.47858   1.48560   1.48621   1.48764
 Alpha virt. eigenvalues --    1.48868   1.49780   1.50027   1.50193   1.50548
 Alpha virt. eigenvalues --    1.50893   1.51497   1.51626   1.52330   1.52874
 Alpha virt. eigenvalues --    1.53022   1.53483   1.53711   1.53769   1.53929
 Alpha virt. eigenvalues --    1.54689   1.54936   1.55227   1.55253   1.55576
 Alpha virt. eigenvalues --    1.55748   1.57306   1.57841   1.57997   1.58460
 Alpha virt. eigenvalues --    1.59145   1.59461   1.59467   1.60704   1.60748
 Alpha virt. eigenvalues --    1.61944   1.62078   1.62315   1.62785   1.64192
 Alpha virt. eigenvalues --    1.64862   1.65234   1.66058   1.66927   1.67585
 Alpha virt. eigenvalues --    1.68955   1.69117   1.69408   1.70289   1.70480
 Alpha virt. eigenvalues --    1.70671   1.71479   1.71782   1.72002   1.72947
 Alpha virt. eigenvalues --    1.73076   1.73130   1.73514   1.73804   1.73825
 Alpha virt. eigenvalues --    1.73881   1.74359   1.74765   1.74834   1.76561
 Alpha virt. eigenvalues --    1.76955   1.78187   1.78239   1.78645   1.79841
 Alpha virt. eigenvalues --    1.79998   1.80061   1.80115   1.81315   1.82129
 Alpha virt. eigenvalues --    1.82156   1.82372   1.82541   1.82677   1.82738
 Alpha virt. eigenvalues --    1.83386   1.83685   1.83785   1.84970   1.85071
 Alpha virt. eigenvalues --    1.85381   1.86546   1.86962   1.87152   1.87325
 Alpha virt. eigenvalues --    1.87431   1.87743   1.88109   1.88456   1.88552
 Alpha virt. eigenvalues --    1.88840   1.88932   1.89049   1.89633   1.90405
 Alpha virt. eigenvalues --    1.90896   1.91476   1.91769   1.91969   1.92294
 Alpha virt. eigenvalues --    1.92346   1.92883   1.93052   1.93167   1.93491
 Alpha virt. eigenvalues --    1.93702   1.93759   1.94279   1.94532   1.95523
 Alpha virt. eigenvalues --    1.95723   1.95892   1.96311   1.96712   1.97230
 Alpha virt. eigenvalues --    1.98505   1.99497   2.00395   2.00456   2.00696
 Alpha virt. eigenvalues --    2.01236   2.01390   2.02566   2.02587   2.03778
 Alpha virt. eigenvalues --    2.05544   2.06179   2.07660   2.07902   2.08542
 Alpha virt. eigenvalues --    2.09191   2.09206   2.10068   2.10957   2.11363
 Alpha virt. eigenvalues --    2.11614   2.11815   2.13099   2.13935   2.15124
 Alpha virt. eigenvalues --    2.15201   2.15954   2.16630   2.16633   2.17547
 Alpha virt. eigenvalues --    2.18010   2.19173   2.20287   2.21674   2.21865
 Alpha virt. eigenvalues --    2.22187   2.22640   2.22848   2.23047   2.23905
 Alpha virt. eigenvalues --    2.23941   2.25193   2.25450   2.26633   2.26668
 Alpha virt. eigenvalues --    2.26741   2.27116   2.27308   2.27540   2.28080
 Alpha virt. eigenvalues --    2.28097   2.29231   2.29323   2.30501   2.32054
 Alpha virt. eigenvalues --    2.33991   2.34927   2.35155   2.36630   2.38663
 Alpha virt. eigenvalues --    2.38791   2.40168   2.40318   2.40544   2.41980
 Alpha virt. eigenvalues --    2.42246   2.42678   2.43908   2.44302   2.45146
 Alpha virt. eigenvalues --    2.45385   2.45927   2.46689   2.46877   2.48586
 Alpha virt. eigenvalues --    2.51409   2.52769   2.52901   2.52988   2.54100
 Alpha virt. eigenvalues --    2.54620   2.54662   2.55636   2.56044   2.56918
 Alpha virt. eigenvalues --    2.57616   2.58234   2.58842   2.59129   2.59219
 Alpha virt. eigenvalues --    2.59781   2.60412   2.60774   2.61168   2.61328
 Alpha virt. eigenvalues --    2.61372   2.61798   2.61871   2.61878   2.62962
 Alpha virt. eigenvalues --    2.63253   2.63710   2.63951   2.64117   2.64656
 Alpha virt. eigenvalues --    2.65372   2.65505   2.65744   2.66529   2.66756
 Alpha virt. eigenvalues --    2.66895   2.67539   2.67615   2.67954   2.67987
 Alpha virt. eigenvalues --    2.68062   2.68834   2.68973   2.69111   2.69345
 Alpha virt. eigenvalues --    2.69351   2.69365   2.69777   2.70491   2.70735
 Alpha virt. eigenvalues --    2.71047   2.71335   2.71713   2.72392   2.72602
 Alpha virt. eigenvalues --    2.73015   2.73085   2.73676   2.73876   2.74378
 Alpha virt. eigenvalues --    2.74481   2.74961   2.75622   2.76435   2.76707
 Alpha virt. eigenvalues --    2.77009   2.77204   2.77857   2.78306   2.78718
 Alpha virt. eigenvalues --    2.79091   2.79140   2.79759   2.79883   2.80395
 Alpha virt. eigenvalues --    2.81168   2.82108   2.82601   2.83477   2.85196
 Alpha virt. eigenvalues --    2.85209   2.86188   2.86452   2.86916   2.87040
 Alpha virt. eigenvalues --    2.88110   2.88600   2.89561   2.90436   2.91865
 Alpha virt. eigenvalues --    2.92723   2.92987   2.93110   2.93255   2.93506
 Alpha virt. eigenvalues --    2.95669   2.96042   2.96251   2.97658   2.97720
 Alpha virt. eigenvalues --    2.98716   2.98827   3.00432   3.01665   3.02369
 Alpha virt. eigenvalues --    3.04439   3.05068   3.05969   3.06925   3.07236
 Alpha virt. eigenvalues --    3.08255   3.08698   3.15605   3.16001   3.16589
 Alpha virt. eigenvalues --    3.16932   3.17308   3.17808   3.19264   3.20302
 Alpha virt. eigenvalues --    3.20787   3.21194   3.23911   3.24474   3.29268
 Alpha virt. eigenvalues --    3.29970   3.30177   3.30650   3.31061   3.32715
 Alpha virt. eigenvalues --    3.35237   3.35289   3.36263   3.36401   3.36601
 Alpha virt. eigenvalues --    3.37039   3.37360   3.37471   3.38969   3.39310
 Alpha virt. eigenvalues --    3.40216   3.40832   3.40923   3.42458   3.44469
 Alpha virt. eigenvalues --    3.44828   3.45884   3.46416   3.48989   3.49128
 Alpha virt. eigenvalues --    3.49986   3.51121   3.51372   3.51531   3.52747
 Alpha virt. eigenvalues --    3.54341   3.56901   3.58242   3.58410   3.59677
 Alpha virt. eigenvalues --    3.61191   3.62230   3.62499   3.63285   3.63793
 Alpha virt. eigenvalues --    3.63870   3.66066   3.66395   3.66898   3.68146
 Alpha virt. eigenvalues --    3.68500   3.68811   3.70715   3.70942   4.00020
 Alpha virt. eigenvalues --    4.00074   4.01329   4.01649   4.01716   4.01747
 Alpha virt. eigenvalues --    4.02794   4.03132   4.15594   4.16151   4.17186
 Alpha virt. eigenvalues --    4.17642   4.18255   4.20220   4.20702   4.21845
 Alpha virt. eigenvalues --    4.21953   4.22540   4.23716   4.24485   4.25524
 Alpha virt. eigenvalues --    4.28095   4.38200   4.40182   4.61735   4.63738
 Alpha virt. eigenvalues --    4.78569   4.79159   4.79943   4.80412   4.80827
 Alpha virt. eigenvalues --    4.81909   4.81942   4.82393   4.84067   4.84402
 Alpha virt. eigenvalues --   23.39616  23.43251  23.54903  23.58679  23.69509
 Alpha virt. eigenvalues --   23.72571  23.76851  23.78569  23.80833  23.81006
 Alpha virt. eigenvalues --   23.82300  23.83421  23.85557  23.87202  23.88518
 Alpha virt. eigenvalues --   23.89600  23.90188  23.91007  23.91633  23.93479
 Alpha virt. eigenvalues --   23.96925  23.98228  23.98512  23.99333  24.08734
 Alpha virt. eigenvalues --   24.09445  24.10017  24.10115  24.10800  24.11399
 Alpha virt. eigenvalues --   24.11612  24.13171  24.13285  24.13759  24.14823
 Alpha virt. eigenvalues --   24.15247  24.15287  24.15505  24.16554  24.16586
 Alpha virt. eigenvalues --   24.19899  24.19944  24.21376  24.21437
          Condensed to atoms (all electrons):
 Mulliken charges:
               1
     1  C   -0.065492
     2  C   -0.063061
     3  C   -0.054125
     4  C   -0.060564
     5  C   -0.093714
     6  C   -0.094134
     7  C   -0.011702
     8  C   -0.061629
     9  C   -0.022819
    10  C   -0.056580
    11  H    0.084995
    12  H    0.077532
    13  H    0.077107
    14  H    0.084925
    15  H    0.097746
    16  H    0.097580
    17  C   -0.016203
    18  C   -0.061629
    19  C   -0.027295
    20  C   -0.056580
    21  H    0.076201
    22  H    0.075782
    23  C   -0.011702
    24  C   -0.065492
    25  C   -0.022819
    26  C   -0.063061
    27  H    0.077532
    28  H    0.077107
    29  C   -0.054125
    30  C   -0.093714
    31  C   -0.060564
    32  C   -0.094134
    33  H    0.084995
    34  H    0.097580
    35  H    0.097746
    36  H    0.084925
    37  C   -0.034292
    38  C   -0.107716
    39  C   -0.061998
    40  C   -0.050576
    41  C   -0.087959
    42  C   -0.115428
    43  C   -0.027835
    44  C   -0.024465
    45  C   -0.008809
    46  C   -0.110421
    47  H    0.078976
    48  H    0.070912
    49  H    0.117785
    50  H    0.121805
    51  H    0.087873
    52  H    0.091478
    53  C   -0.032180
    54  C   -0.024465
    55  C   -0.012364
    56  C   -0.110421
    57  H    0.069505
    58  H    0.115764
    59  C   -0.027835
    60  C   -0.034292
    61  C   -0.008809
    62  C   -0.107716
    63  H    0.070912
    64  H    0.117785
    65  C   -0.061998
    66  C   -0.087959
    67  C   -0.050576
    68  C   -0.115428
    69  H    0.078976
    70  H    0.091478
    71  H    0.087873
    72  H    0.121805
 Sum of Mulliken charges =   0.00000
 Mulliken charges with hydrogens summed into heavy atoms:
               1
     1  C   -0.065492
     2  C   -0.063061
     3  C    0.030871
     4  C    0.024362
     5  C    0.003866
     6  C    0.003611
     7  C    0.065829
     8  C   -0.061629
     9  C    0.054288
    10  C   -0.056580
    17  C    0.059998
    18  C   -0.061629
    19  C    0.048487
    20  C   -0.056580
    23  C    0.065829
    24  C   -0.065492
    25  C    0.054288
    26  C   -0.063061
    29  C    0.030871
    30  C    0.003866
    31  C    0.024362
    32  C    0.003611
    37  C   -0.034292
    38  C   -0.107716
    39  C    0.016977
    40  C    0.071228
    41  C    0.003519
    42  C   -0.027555
    43  C    0.043078
    44  C   -0.024465
    45  C    0.108976
    46  C   -0.110421
    53  C    0.037325
    54  C   -0.024465
    55  C    0.103400
    56  C   -0.110421
    59  C    0.043078
    60  C   -0.034292
    61  C    0.108976
    62  C   -0.107716
    65  C    0.016977
    66  C    0.003519
    67  C    0.071228
    68  C   -0.027555
         Mulliken charges condensed to fragments:
      1     -0.019384
      2      0.019384
 Electronic spatial extent (au):  <R**2>=          26435.1647
 Charge=              0.0000 electrons
 Dipole moment (field-independent basis, Debye):
    X=              0.0873    Y=             -1.3400    Z=              0.0000  Tot=              1.3428
 Quadrupole moment (field-independent basis, Debye-Ang):
   XX=           -246.0174   YY=           -249.1726   ZZ=           -219.6275
   XY=             -0.0546   XZ=              0.0000   YZ=              0.0000
 Traceless Quadrupole moment (field-independent basis, Debye-Ang):
   XX=             -7.7449   YY=            -10.9001   ZZ=             18.6450
   XY=             -0.0546   XZ=              0.0000   YZ=              0.0000
 Octapole moment (field-independent basis, Debye-Ang**2):
  XXX=              7.3395  YYY=            185.1181  ZZZ=              0.0000  XYY=             -1.4777
  XXY=            -74.5490  XXZ=              0.0000  XZZ=              1.5214  YZZ=            -31.0048
  YYZ=              0.0000  XYZ=              0.0000
 Hexadecapole moment (field-independent basis, Debye-Ang**3):
 XXXX=          -1271.8439 YYYY=         -12464.8877 ZZZZ=         -21025.3056 XXXY=            178.5326
 XXXZ=              0.0000 YYYX=            180.1351 YYYZ=              0.0000 ZZZX=              0.0000
 ZZZY=              0.0000 XXYY=          -2362.7280 XXZZ=          -4163.7928 YYZZ=          -5848.2914
 XXYZ=              0.0000 YYXZ=              0.0000 ZZXY=             52.7024
 N-N= 4.592282597760D+03 E-N=-1.311502779831D+04  KE= 1.686673876555D+03
 Symmetry A'   KE= 9.134159729207D+02
 Symmetry A"   KE= 7.732579036338D+02
 No NMR shielding tensors so no spin-rotation constants.
 Leave Link  601 at Wed Sep 27 16:59:22 2023, MaxMem=  3221225472 cpu:              58.2 elap:               1.6
 (Enter /home/center/opt/aarch64/apps/gaussian16/c01/g16/l122.exe)
 CPIOFr:  IOpCl= 0 IRwI=-1 IRwCP=  731 ICalc= -1 LCPTot=     1419224 Len1MO=     3708034 IndFrg=     1419224
 CPIOFr:  IOpCl= 0 IRwI=-1 IRwCP=  731 ICalc=  0 LCPTot=     1419224 Len1MO=     3708034 IndFrg=     5127258
 Counterpoise: doing calculation for fragment   1 using the basis set of the full-system, NewBq=T
 Leave Link  122 at Wed Sep 27 16:59:25 2023, MaxMem=  3221225472 cpu:               8.6 elap:               0.4
 (Enter /home/center/opt/aarch64/apps/gaussian16/c01/g16/l301.exe)
 Basis read from rwf:  (5D, 7F)
 No pseudopotential information found on rwf file.
 There are   528 symmetry adapted cartesian basis functions of A'  symmetry.
 There are   476 symmetry adapted cartesian basis functions of A"  symmetry.
 There are   504 symmetry adapted basis functions of A'  symmetry.
 There are   456 symmetry adapted basis functions of A"  symmetry.
   960 basis functions,  1632 primitive gaussians,  1004 cartesian basis functions
    73 alpha electrons       73 beta electrons
       nuclear repulsion energy      1494.3575060567 Hartrees.
 IExCor=  402 DFT=T Ex+Corr=B3LYP ExCW=0 ScaHFX=  0.200000
 ScaDFX=  0.800000  0.720000  1.000000  0.810000 ScalE2=  1.000000  1.000000
 IRadAn=      5 IRanWt=     -1 IRanGd=            0 ICorTp=0 IEmpDi=131
 NAtoms=   72 NActive=   72 NUniq=   40 SFac= 3.24D+00 NAtFMM=   60 NAOKFM=T Big=F
 Integral buffers will be    131072 words long.
 Raffenetti 2 integral format.
 Two-electron integral symmetry is turned on.
 R6Disp:  Grimme-D3 Dispersion energy=       -0.0303938888 Hartrees.
 Nuclear repulsion after empirical dispersion term =     1494.3271121679 Hartrees.
 No density basis found on file    718.
 Leave Link  301 at Wed Sep 27 16:59:27 2023, MaxMem=  3221225472 cpu:               3.6 elap:               0.1
 (Enter /home/center/opt/aarch64/apps/gaussian16/c01/g16/l302.exe)
 NPDir=0 NMtPBC=     1 NCelOv=     1 NCel=       1 NClECP=     1 NCelD=      1
         NCelK=      1 NCelE2=     1 NClLst=     1 CellRange=     0.0.
 One-electron integrals computed using PRISM.
 One-electron integral symmetry used in STVInt
 NBasis=   960 RedAO= T EigKep=  3.87D-05  NBF=   504   456
 NBsUse=   960 1.00D-06 EigRej= -1.00D+00 NBFU=   504   456
 Precomputing XC quadrature grid using
 IXCGrd= 4 IRadAn=           5 IRanWt=          -1 IRanGd=           0 AccXCQ= 0.00D+00.
 Generated NRdTot=       0 NPtTot=           0 NUsed=           0 NTot=          32
 NSgBfM=   991   987   987   991   991 MxSgAt=    72 MxSgA2=    72.
 Leave Link  302 at Wed Sep 27 16:59:31 2023, MaxMem=  3221225472 cpu:              58.7 elap:               1.6
 (Enter /home/center/opt/aarch64/apps/gaussian16/c01/g16/l303.exe)
 DipDrv:  MaxL=1.
 Leave Link  303 at Wed Sep 27 16:59:34 2023, MaxMem=  3221225472 cpu:              13.5 elap:               0.4
 (Enter /home/center/opt/aarch64/apps/gaussian16/c01/g16/l401.exe)
 ExpMin= 1.03D-01 ExpMax= 4.56D+03 ExpMxC= 6.82D+02 IAcc=3 IRadAn=         5 AccDes= 0.00D+00
 Harris functional with IExCor=  402 and IRadAn=       5 diagonalized for initial guess.
 HarFok:  IExCor=  402 AccDes= 0.00D+00 IRadAn=         5 IDoV= 1 UseB2=F ITyADJ=14
 ICtDFT=  3500011 ScaDFX=  1.000000  1.000000  1.000000  1.000000
 FoFCou: FMM=F IPFlag=           0 FMFlag=      100000 FMFlg1=        2000
         NFxFlg=           0 DoJE=T BraDBF=F KetDBF=T FulRan=T
         wScrn=  0.000000 ICntrl=       500 IOpCl=  0 I1Cent=   200000004 NGrid=           0
         NMat0=    1 NMatS0=      1 NMatT0=    0 NMatD0=    1 NMtDS0=    0 NMtDT0=    0
 Petite list used in FoFCou.
 Harris En= -847.066369641406    
 JPrj=0 DoOrth=F DoCkMO=F.
 Initial guess orbital symmetries:
       Occupied  (A") (A') (A') (A") (A") (A') (A") (A') (A') (A")
                 (A") (A') (A') (A') (A") (A') (A") (A') (A") (A')
                 (A') (A") (A') (A") (A') (A") (A') (A') (A") (A')
                 (A") (A") (A') (A') (A") (A") (A') (A") (A') (A')
                 (A') (A") (A") (A") (A') (A') (A") (A') (A') (A")
                 (A') (A") (A") (A') (A') (A") (A') (A") (A') (A")
                 (A") (A') (A') (A") (A') (A") (A') (A") (A') (A')
                 (A") (A") (A')
       Virtual   (A') (A") (A") (A') (A') (A") (A') (A") (A') (A")
                 (A') (A') (A") (A') (A") (A') (A') (A") (A') (A")
                 (A") (A") (A') (A') (A") (A') (A') (A') (A') (A')
                 (A") (A") (A") (A') (A') (A") (A') (A") (A") (A')
                 (A') (A") (A") (A') (A") (A') (A") (A') (A") (A')
                 (A') (A") (A') (A") (A') (A') (A") (A') (A") (A")
                 (A') (A') (A') (A") (A') (A") (A") (A") (A') (A")
                 (A') (A') (A') (A") (A') (A') (A") (A') (A') (A')
                 (A") (A") (A') (A") (A") (A') (A") (A') (A") (A')
                 (A") (A") (A") (A') (A') (A') (A") (A") (A') (A')
                 (A') (A') (A") (A') (A") (A") (A') (A') (A") (A')
                 (A") (A') (A') (A') (A") (A") (A") (A") (A') (A")
                 (A") (A') (A') (A") (A") (A') (A') (A') (A") (A')
                 (A") (A') (A') (A') (A") (A') (A") (A") (A') (A')
                 (A') (A") (A') (A") (A') (A') (A") (A') (A") (A")
                 (A") (A") (A') (A') (A") (A') (A") (A') (A') (A")
                 (A") (A') (A") (A') (A') (A') (A") (A') (A") (A")
                 (A") (A') (A") (A') (A') (A") (A') (A') (A") (A')
                 (A") (A') (A") (A') (A") (A") (A') (A") (A") (A')
                 (A') (A') (A') (A') (A") (A') (A") (A") (A') (A")
                 (A') (A") (A") (A') (A") (A') (A") (A') (A') (A")
                 (A") (A') (A") (A') (A') (A") (A") (A") (A') (A')
                 (A') (A") (A') (A") (A') (A") (A') (A') (A') (A")
                 (A") (A') (A') (A") (A") (A') (A") (A') (A") (A")
                 (A') (A') (A") (A") (A') (A') (A") (A') (A") (A")
                 (A") (A') (A") (A') (A') (A') (A') (A') (A") (A")
                 (A') (A") (A") (A') (A') (A') (A") (A") (A') (A")
                 (A') (A') (A") (A") (A") (A') (A') (A") (A") (A')
                 (A') (A") (A") (A') (A") (A') (A') (A") (A') (A")
                 (A') (A') (A") (A') (A') (A') (A") (A") (A') (A")
                 (A') (A') (A') (A") (A") (A") (A') (A") (A') (A")
                 (A') (A") (A") (A') (A") (A') (A') (A") (A') (A")
                 (A') (A') (A") (A") (A') (A") (A') (A') (A') (A")
                 (A') (A") (A') (A') (A") (A') (A") (A') (A") (A')
                 (A") (A") (A") (A') (A') (A") (A") (A') (A') (A')
                 (A') (A") (A") (A') (A') (A") (A') (A") (A') (A")
                 (A') (A') (A") (A') (A") (A") (A') (A") (A') (A")
                 (A') (A") (A") (A') (A') (A") (A") (A') (A") (A')
                 (A') (A") (A') (A") (A") (A') (A') (A") (A') (A")
                 (A') (A") (A") (A') (A') (A") (A') (A') (A") (A")
                 (A') (A') (A") (A") (A') (A") (A") (A') (A') (A")
                 (A") (A') (A') (A') (A') (A") (A") (A') (A") (A')
                 (A") (A") (A') (A") (A') (A") (A") (A') (A") (A')
                 (A") (A') (A') (A') (A') (A") (A') (A") (A") (A')
                 (A") (A') (A') (A") (A') (A') (A") (A") (A") (A')
                 (A") (A') (A') (A') (A") (A') (A') (A") (A") (A")
                 (A') (A") (A') (A") (A") (A') (A') (A') (A") (A')
                 (A") (A') (A") (A') (A") (A") (A") (A') (A') (A")
                 (A") (A') (A") (A') (A") (A') (A') (A") (A") (A')
                 (A") (A') (A") (A') (A') (A") (A') (A') (A") (A")
                 (A') (A") (A') (A") (A') (A") (A') (A") (A') (A')
                 (A') (A") (A") (A") (A") (A") (A') (A') (A') (A')
                 (A") (A') (A") (A') (A") (A') (A") (A') (A") (A')
                 (A") (A') (A') (A") (A') (A') (A") (A") (A') (A')
                 (A") (A') (A") (A') (A') (A") (A") (A') (A") (A')
                 (A') (A") (A") (A') (A") (A") (A') (A') (A') (A")
                 (A') (A') (A") (A') (A") (A") (A") (A') (A") (A")
                 (A') (A') (A') (A') (A") (A') (A") (A') (A') (A")
                 (A") (A') (A") (A") (A') (A') (A") (A") (A") (A')
                 (A') (A') (A') (A") (A') (A") (A') (A") (A') (A")
                 (A') (A") (A") (A") (A') (A') (A") (A') (A") (A')
                 (A') (A") (A') (A") (A') (A") (A') (A") (A') (A')
                 (A") (A') (A") (A") (A') (A") (A") (A') (A') (A")
                 (A') (A") (A") (A") (A") (A') (A') (A') (A') (A')
                 (A") (A") (A') (A") (A') (A") (A') (A") (A') (A")
                 (A') (A") (A') (A") (A') (A") (A") (A') (A") (A')
                 (A") (A') (A') (A") (A") (A') (A") (A") (A') (A')
                 (A') (A") (A") (A') (A') (A") (A') (A") (A') (A')
                 (A") (A') (A") (A') (A') (A") (A') (A") (A') (A")
                 (A') (A") (A') (A') (A") (A") (A') (A") (A') (A')
                 (A") (A") (A') (A") (A') (A") (A') (A') (A") (A')
                 (A") (A') (A") (A') (A") (A') (A') (A") (A') (A')
                 (A") (A") (A') (A") (A") (A') (A') (A') (A') (A")
                 (A") (A") (A') (A") (A') (A') (A") (A") (A") (A')
                 (A") (A') (A") (A') (A") (A') (A') (A") (A") (A')
                 (A') (A") (A') (A') (A") (A') (A") (A') (A") (A')
                 (A") (A') (A') (A") (A") (A') (A') (A') (A") (A")
                 (A") (A') (A') (A") (A') (A') (A") (A') (A") (A')
                 (A") (A') (A') (A") (A") (A") (A') (A") (A') (A')
                 (A") (A") (A') (A") (A') (A") (A') (A') (A') (A")
                 (A") (A') (A") (A') (A") (A') (A") (A') (A') (A")
                 (A") (A') (A') (A") (A') (A") (A") (A') (A") (A')
[...]
                 (A') (A') (A") (A") (A') (A") (A') (A") (A') (A')
                 (A") (A") (A')
       Virtual   (A') (A") (A") (A') (A') (A") (A') (A') (A') (A")
                 (A") (A') (A") (A') (A") (A') (A") (A") (A') (A")
                 (A') (A') (A") (A') (A") (A') (A') (A') (A') (A")
                 (A") (A") (A") (A') (A') (A") (A') (A") (A') (A")
                 (A') (A') (A') (A") (A') (A") (A") (A') (A') (A")
                 (A") (A') (A') (A") (A') (A") (A") (A") (A') (A")
                 (A') (A') (A') (A') (A') (A") (A') (A') (A") (A")
                 (A") (A') (A') (A') (A") (A') (A") (A") (A") (A')
                 (A') (A") (A') (A") (A") (A') (A") (A') (A') (A')
                 (A') (A') (A") (A") (A") (A") (A') (A") (A') (A")
                 (A') (A') (A') (A") (A") (A') (A') (A") (A') (A")
                 (A') (A") (A") (A") (A') (A') (A") (A') (A') (A")
                 (A') (A") (A") (A') (A') (A") (A') (A") (A') (A")
                 (A") (A') (A') (A') (A') (A") (A") (A") (A') (A")
                 (A') (A") (A') (A") (A') (A') (A") (A") (A') (A")
                 (A') (A") (A') (A") (A') (A') (A") (A') (A") (A")
                 (A') (A") (A') (A') (A") (A") (A') (A") (A') (A")
                 (A') (A') (A") (A') (A') (A") (A") (A') (A') (A')
                 (A") (A') (A") (A") (A") (A") (A') (A") (A') (A')
                 (A") (A') (A") (A') (A') (A') (A") (A') (A") (A')
                 (A") (A") (A') (A') (A") (A") (A') (A') (A") (A')
                 (A') (A') (A') (A") (A") (A") (A") (A') (A') (A")
                 (A') (A") (A") (A') (A") (A') (A") (A') (A") (A')
                 (A") (A') (A') (A") (A') (A") (A") (A') (A') (A")
                 (A") (A') (A') (A") (A") (A') (A") (A") (A") (A')
                 (A') (A") (A') (A') (A") (A') (A') (A") (A') (A")
                 (A") (A') (A") (A') (A') (A") (A") (A") (A') (A')
                 (A") (A') (A') (A") (A") (A") (A') (A") (A') (A')
                 (A") (A') (A") (A') (A") (A') (A') (A') (A") (A')
                 (A") (A") (A') (A') (A") (A") (A') (A") (A') (A")
                 (A') (A') (A") (A") (A') (A') (A") (A') (A') (A')
                 (A") (A") (A') (A") (A') (A") (A') (A") (A') (A')
                 (A') (A") (A") (A") (A') (A") (A') (A') (A') (A")
                 (A") (A') (A") (A') (A') (A") (A') (A") (A") (A')
                 (A') (A") (A') (A") (A") (A') (A') (A") (A') (A")
                 (A') (A") (A') (A") (A') (A") (A") (A') (A') (A")
                 (A') (A") (A') (A') (A") (A") (A') (A") (A') (A')
                 (A") (A') (A") (A') (A') (A") (A') (A") (A') (A")
                 (A") (A') (A") (A') (A") (A') (A") (A') (A') (A")
                 (A") (A') (A") (A') (A') (A") (A") (A') (A') (A")
                 (A') (A") (A') (A") (A') (A') (A")
 The electronic state is 1-A'.
 Alpha  occ. eigenvalues --  -10.18931 -10.18930 -10.18896 -10.18895 -10.18848
 Alpha  occ. eigenvalues --  -10.18848 -10.18813 -10.18813 -10.17956 -10.17955
 Alpha  occ. eigenvalues --  -10.17920 -10.17920 -10.17919 -10.17919 -10.17875
 Alpha  occ. eigenvalues --  -10.17875 -10.17863 -10.17863 -10.17808 -10.17808
 Alpha  occ. eigenvalues --  -10.17781 -10.17781  -0.89340  -0.87865  -0.85549
 Alpha  occ. eigenvalues --   -0.82415  -0.79820  -0.78521  -0.78314  -0.75991
 Alpha  occ. eigenvalues --   -0.74255  -0.72901  -0.69196  -0.67344  -0.62728
 Alpha  occ. eigenvalues --   -0.62370  -0.61108  -0.59964  -0.59301  -0.57689
 Alpha  occ. eigenvalues --   -0.52709  -0.52573  -0.52293  -0.49654  -0.48513
 Alpha  occ. eigenvalues --   -0.47160  -0.46110  -0.45590  -0.45476  -0.43928
 Alpha  occ. eigenvalues --   -0.43182  -0.42578  -0.41808  -0.41572  -0.41386
 Alpha  occ. eigenvalues --   -0.40692  -0.40405  -0.39579  -0.38193  -0.36732
 Alpha  occ. eigenvalues --   -0.36341  -0.35550  -0.34094  -0.33809  -0.33058
 Alpha  occ. eigenvalues --   -0.32930  -0.31612  -0.29665  -0.28406  -0.26623
 Alpha  occ. eigenvalues --   -0.24364  -0.22582  -0.17855
 Alpha virt. eigenvalues --   -0.09755  -0.04464  -0.02747  -0.00147   0.02073
 Alpha virt. eigenvalues --    0.02370   0.03189   0.04746   0.04859   0.04871
 Alpha virt. eigenvalues --    0.06161   0.06575   0.07968   0.08162   0.08303
 Alpha virt. eigenvalues --    0.09607   0.10049   0.11524   0.11533   0.13796
 Alpha virt. eigenvalues --    0.14111   0.14670   0.18092   0.18194   0.18832
 Alpha virt. eigenvalues --    0.19391   0.22815   0.23002   0.24379   0.24942
 Alpha virt. eigenvalues --    0.25581   0.27528   0.27575   0.28012   0.28228
 Alpha virt. eigenvalues --    0.28947   0.29389   0.30158   0.30759   0.31175
 Alpha virt. eigenvalues --    0.32897   0.34528   0.36420   0.36484   0.37134
 Alpha virt. eigenvalues --    0.37503   0.37629   0.37651   0.38116   0.38643
 Alpha virt. eigenvalues --    0.39094   0.39439   0.39739   0.40236   0.40435
 Alpha virt. eigenvalues --    0.41918   0.41926   0.41940   0.42289   0.42318
 Alpha virt. eigenvalues --    0.42643   0.43748   0.44233   0.44835   0.45295
 Alpha virt. eigenvalues --    0.45683   0.45924   0.45953   0.46379   0.47165
 Alpha virt. eigenvalues --    0.47805   0.47809   0.47978   0.48073   0.48231
 Alpha virt. eigenvalues --    0.48568   0.49414   0.49572   0.51377   0.51846
 Alpha virt. eigenvalues --    0.52370   0.53118   0.53671   0.55998   0.57923
 Alpha virt. eigenvalues --    0.57955   0.59048   0.59201   0.60433   0.60585
 Alpha virt. eigenvalues --    0.60693   0.61101   0.61690   0.62105   0.62173
 Alpha virt. eigenvalues --    0.63432   0.63481   0.64458   0.64535   0.65533
 Alpha virt. eigenvalues --    0.66693   0.66910   0.67680   0.67724   0.70658
 Alpha virt. eigenvalues --    0.71305   0.71405   0.71494   0.72803   0.73989
 Alpha virt. eigenvalues --    0.75405   0.75894   0.76289   0.77801   0.77809
 Alpha virt. eigenvalues --    0.78943   0.79160   0.79723   0.81162   0.81509
 Alpha virt. eigenvalues --    0.82881   0.83001   0.84383   0.84585   0.84713
 Alpha virt. eigenvalues --    0.88087   0.89711   0.89765   0.91536   0.92083
 Alpha virt. eigenvalues --    0.92578   0.93749   0.95806   0.96107   0.96442
 Alpha virt. eigenvalues --    0.96590   0.96905   0.98547   1.00356   1.01118
 Alpha virt. eigenvalues --    1.02686   1.03027   1.03354   1.04405   1.05244
 Alpha virt. eigenvalues --    1.05439   1.05525   1.05950   1.07395   1.07547
 Alpha virt. eigenvalues --    1.07686   1.08438   1.10005   1.10036   1.12070
 Alpha virt. eigenvalues --    1.13223   1.13544   1.13650   1.14526   1.15341
 Alpha virt. eigenvalues --    1.17432   1.18332   1.19657   1.20432   1.23014
 Alpha virt. eigenvalues --    1.23618   1.27884   1.28234   1.30579   1.32076
 Alpha virt. eigenvalues --    1.32743   1.34942   1.37641   1.39236   1.39896
 Alpha virt. eigenvalues --    1.39942   1.40725   1.42751   1.43476   1.43554
 Alpha virt. eigenvalues --    1.45057   1.46086   1.47119   1.47538   1.48841
 Alpha virt. eigenvalues --    1.49280   1.49417   1.50258   1.50674   1.52268
 Alpha virt. eigenvalues --    1.52650   1.53402   1.54331   1.54372   1.54781
 Alpha virt. eigenvalues --    1.54807   1.57107   1.57715   1.58569   1.59882
 Alpha virt. eigenvalues --    1.60106   1.62692   1.63242   1.64856   1.66641
 Alpha virt. eigenvalues --    1.69292   1.69605   1.69709   1.70649   1.71804
 Alpha virt. eigenvalues --    1.72459   1.72619   1.73075   1.73096   1.73680
 Alpha virt. eigenvalues --    1.77494   1.78519   1.79157   1.79419   1.80511
 Alpha virt. eigenvalues --    1.81616   1.81887   1.82058   1.83581   1.84039
 Alpha virt. eigenvalues --    1.85487   1.87392   1.87456   1.87577   1.87728
 Alpha virt. eigenvalues --    1.88131   1.88613   1.90743   1.91387   1.92190
 Alpha virt. eigenvalues --    1.92193   1.92572   1.92670   1.93517   1.93938
 Alpha virt. eigenvalues --    1.94544   1.95483   1.97262   1.99429   2.00088
 Alpha virt. eigenvalues --    2.00602   2.01362   2.03019   2.05757   2.08293
 Alpha virt. eigenvalues --    2.09111   2.09256   2.09792   2.12192   2.14098
 Alpha virt. eigenvalues --    2.15528   2.15584   2.17200   2.19751   2.20833
 Alpha virt. eigenvalues --    2.21576   2.22525   2.23381   2.24503   2.26441
 Alpha virt. eigenvalues --    2.26972   2.27242   2.27719   2.28046   2.29391
 Alpha virt. eigenvalues --    2.33301   2.35725   2.39155   2.39384   2.40817
 Alpha virt. eigenvalues --    2.42649   2.43076   2.45776   2.45994   2.46870
 Alpha virt. eigenvalues --    2.51623   2.51954   2.53354   2.53485   2.55138
 Alpha virt. eigenvalues --    2.56159   2.58701   2.58838   2.59764   2.59776
 Alpha virt. eigenvalues --    2.60682   2.61147   2.61719   2.62222   2.63349
 Alpha virt. eigenvalues --    2.63999   2.64478   2.66054   2.66794   2.67121
 Alpha virt. eigenvalues --    2.67374   2.68356   2.68872   2.68876   2.69372
 Alpha virt. eigenvalues --    2.69557   2.69907   2.70083   2.70281   2.73482
 Alpha virt. eigenvalues --    2.74771   2.74836   2.76066   2.77101   2.77577
 Alpha virt. eigenvalues --    2.78232   2.78455   2.78850   2.80822   2.82359
 Alpha virt. eigenvalues --    2.85535   2.85993   2.86737   2.87294   2.90966
 Alpha virt. eigenvalues --    2.91783   2.92195   2.93676   2.95232   2.95887
 Alpha virt. eigenvalues --    2.99270   2.99858   3.03165   3.05604   3.06852
 Alpha virt. eigenvalues --    3.07371   3.15988   3.16029   3.16647   3.19843
 Alpha virt. eigenvalues --    3.20017   3.23601   3.29134   3.29680   3.31610
 Alpha virt. eigenvalues --    3.35095   3.35458   3.35677   3.35858   3.38023
 Alpha virt. eigenvalues --    3.39887   3.41413   3.44960   3.45362   3.47993
 Alpha virt. eigenvalues --    3.48278   3.50401   3.53073   3.57439   3.58649
 Alpha virt. eigenvalues --    3.61466   3.62620   3.63208   3.63698   3.65910
 Alpha virt. eigenvalues --    3.67534   3.67678   4.00384   4.00442   4.01859
 Alpha virt. eigenvalues --    4.02182   4.16133   4.16678   4.17360   4.21240
 Alpha virt. eigenvalues --    4.22396   4.22517   4.25488   4.38492   4.62290
 Alpha virt. eigenvalues --    4.79179   4.79740   4.80562   4.82562   4.83014
 Alpha virt. eigenvalues --   23.39176  23.54541  23.69085  23.77378  23.80419
 Alpha virt. eigenvalues --   23.81537  23.86099  23.89067  23.89154  23.92210
 Alpha virt. eigenvalues --   23.97563  23.98365  24.09049  24.09932  24.10529
 Alpha virt. eigenvalues --   24.12220  24.13779  24.14375  24.15775  24.15810
 Alpha virt. eigenvalues --   24.20452  24.20497
          Condensed to atoms (all electrons):
 Mulliken charges:
               1
     1  C    0.000000
     2  C    0.000000
     3  C    0.000000
     4  C    0.000000
     5  C    0.000000
     6  C    0.000000
     7  C    0.000000
     8  C    0.000000
     9  C    0.000000
    10  C    0.000000
    11  H    0.000000
    12  H    0.000000
    13  H    0.000000
    14  H    0.000000
    15  H    0.000000
    16  H    0.000000
    17  C    0.000000
    18  C    0.000000
    19  C    0.000000
    20  C    0.000000
    21  H    0.000000
    22  H    0.000000
    23  C    0.000000
    24  C    0.000000
    25  C    0.000000
    26  C    0.000000
    27  H    0.000000
    28  H    0.000000
    29  C    0.000000
    30  C    0.000000
    31  C    0.000000
    32  C    0.000000
    33  H    0.000000
    34  H    0.000000
    35  H    0.000000
    36  H    0.000000
    37  C   -0.059168
    38  C   -0.059168
    39  C   -0.055977
    40  C   -0.055977
    41  C   -0.092198
    42  C   -0.092198
    43  C   -0.016525
    44  C   -0.054498
    45  C   -0.016525
    46  C   -0.054498
    47  H    0.082122
    48  H    0.074853
    49  H    0.074853
    50  H    0.082122
    51  H    0.094847
    52  H    0.094847
    53  C   -0.020341
    54  C   -0.054498
    55  C   -0.020341
    56  C   -0.054498
    57  H    0.073428
    58  H    0.073428
    59  C   -0.016525
    60  C   -0.059168
    61  C   -0.016525
    62  C   -0.059168
    63  H    0.074853
    64  H    0.074853
    65  C   -0.055977
    66  C   -0.092198
    67  C   -0.055977
    68  C   -0.092198
    69  H    0.082122
    70  H    0.094847
    71  H    0.094847
    72  H    0.082122
 Sum of Mulliken charges =   0.00000
 Mulliken charges with hydrogens summed into heavy atoms:
               1
     1  C    0.000000
     2  C    0.000000
     3  C    0.000000
     4  C    0.000000
     5  C    0.000000
     6  C    0.000000
     7  C    0.000000
     8  C    0.000000
     9  C    0.000000
    10  C    0.000000
    17  C    0.000000
    18  C    0.000000
    19  C    0.000000
    20  C    0.000000
    23  C    0.000000
    24  C    0.000000
    25  C    0.000000
    26  C    0.000000
    29  C    0.000000
    30  C    0.000000
    31  C    0.000000
    32  C    0.000000
    37  C   -0.059168
    38  C   -0.059168
    39  C    0.026144
    40  C    0.026144
    41  C    0.002649
    42  C    0.002649
    43  C    0.058328
    44  C   -0.054498
    45  C    0.058328
    46  C   -0.054498
    53  C    0.053087
    54  C   -0.054498
    55  C    0.053087
    56  C   -0.054498
    59  C    0.058328
    60  C   -0.059168
    61  C    0.058328
    62  C   -0.059168
    65  C    0.026144
    66  C    0.002649
    67  C    0.026144
    68  C    0.002649
         Mulliken charges condensed to fragments:
      1      0.000000
      2      0.000000
 Electronic spatial extent (au):  <R**2>=          17640.1928
 Charge=              0.0000 electrons
 Dipole moment (field-independent basis, Debye):
    X=              0.0000    Y=              0.0000    Z=              0.0000  Tot=              0.0000
 Quadrupole moment (field-independent basis, Debye-Ang):
   XX=           -136.3921   YY=           -110.7480   ZZ=           -109.0115
   XY=              0.0000   XZ=              0.0000   YZ=              0.0000
 Traceless Quadrupole moment (field-independent basis, Debye-Ang):
   XX=            -17.6749   YY=              7.9692   ZZ=              9.7057
   XY=              0.0000   XZ=              0.0000   YZ=              0.0000
 Octapole moment (field-independent basis, Debye-Ang**2):
  XXX=           1157.3250  YYY=            939.7282  ZZZ=              0.0000  XYY=            313.2428
  XXY=            385.7750  XXZ=              0.0000  XZZ=            308.3310  YZZ=            308.3310
  YYZ=              0.0000  XYZ=              0.0000
 Hexadecapole moment (field-independent basis, Debye-Ang**3):
 XXXX=          -6701.2227 YYYY=          -6432.6223 ZZZZ=         -10461.4325 XXXY=          -3273.4094
 XXXZ=              0.0000 YYYX=          -2657.9527 YYYZ=              0.0000 ZZZX=              0.0000
 ZZZY=              0.0000 XXYY=          -2233.5361 XXZZ=          -3080.0238 YYZZ=          -2841.3062
 XXYZ=              0.0000 YYXZ=              0.0000 ZZXY=           -872.0918
 N-N= 1.494327110001D+03 E-N=-4.953709171465D+03  KE= 8.433374904125D+02
 Symmetry A'   KE= 4.567052305076D+02
 Symmetry A"   KE= 3.866322599049D+02
 No NMR shielding tensors so no spin-rotation constants.
 Leave Link  601 at Wed Sep 27 17:15:51 2023, MaxMem=  3221225472 cpu:              18.8 elap:               0.5
 (Enter /home/center/opt/aarch64/apps/gaussian16/c01/g16/l122.exe)
 CPIOFr:  IOpCl= 0 IRwI=-1 IRwCP=  731 ICalc=  4 LCPTot=     1419224 Len1MO=     3708034 IndFrg=    19959394
 Restoring MOs from calculation   1 to rwf.
 CPIOFr:  IOpCl= 0 IRwI=-2 IRwCP=  731 ICalc=  0 LCPTot=     1419224 Len1MO=     3708034 IndFrg=     5127258
 Counterpoise corrected energy =   -1694.041458335806
                   BSSE energy =       0.000021983381
              sum of fragments =   -1694.039683044265
           complexation energy =      -1.13 kcal/mole (raw)
           complexation energy =      -1.11 kcal/mole (corrected)
 Leave Link  122 at Wed Sep 27 17:15:54 2023, MaxMem=  3221225472 cpu:               8.3 elap:               0.3
 (Enter /home/center/opt/aarch64/apps/gaussian16/c01/g16/l9999.exe)

 Test job not archived.
 1\1\GINC-FX0448\SP\RB3LYP\6-311G(d,p)\C44H28\Z40145W\27-Sep-2023\0\\#P
  TEST b3lyp/6-311G** EmpiricalDispersion=GD3 counterpoise=2\\pentacene
 _A1=0_A2=0_A3=45_p2\\0,1\C,0,-0.5039478476,0.5239478476,-3.6612755801\
 C,0,0.5239480325,-0.5039480325,-3.6612755629\C,0,-0.9861248463,1.00612
 48463,-4.9235927708\C,0,1.0061250889,-0.9861250889,-4.9235926697\C,0,-
 0.4963213507,0.5163213507,-6.096356521\C,0,0.5163216812,-0.4963216812,
 -6.0963564796\C,0,-0.9844684311,1.0044684311,-2.4533174875\C,0,-0.5044
 88426,0.524488426,-1.2140288145\C,0,1.0044685359,-0.9844685359,-2.4533
 173917\C,0,0.5244885437,-0.5044885437,-1.2140288362\H,0,-1.7533559667,
 1.7733559667,-4.9232600459\H,0,-1.7521866813,1.7721866813,-2.453928581
 5\H,0,1.7721859268,-1.7521859268,-2.4539284818\H,0,1.7733558421,-1.753
 3558421,-4.9232597785\H,0,0.8905568758,-0.8705568758,-7.0425276922\H,0
 ,-0.8705565046,0.8905565046,-7.042527775\C,0,-0.9848184961,1.004818496
 1,0.0099998782\C,0,-0.5044883957,0.5244883957,1.2340295553\C,0,1.00481
 85643,-0.9848185643,0.0099998696\C,0,0.5244885146,-0.5044885146,1.2340
 295261\H,0,-1.7524699697,1.7724699697,0.0099999205\H,0,1.772468921,-1.
 752468921,0.0099999641\C,0,-0.9844683048,1.0044683048,2.4733171385\C,0
 ,-0.5039477114,0.5239477114,3.681276331\C,0,1.0044684211,-0.9844684211
 ,2.4733170835\C,0,0.5239479079,-0.5039479079,3.6812763217\H,0,-1.75218
 65527,1.7721865527,2.4739285326\H,0,1.7721858092,-1.7521858092,2.47392
 83796\C,0,-0.9861245177,1.0061245177,4.9435920588\C,0,-0.4963209372,0.
 5163209372,6.116356633\C,0,1.0061247659,-0.9861247659,4.9435919377\C,0
 ,0.5163212637,-0.4963212637,6.1163566075\H,0,-1.7533556504,1.773355650
 4,4.9432601504\H,0,-0.8705567426,0.8905567426,7.0625274368\H,0,0.89055
 70967,-0.8705570967,7.0625272142\H,0,1.7733555414,-1.7533555414,4.9432
 599297\C,0,7.4960521524,0.5239478476,-3.6612755801\C,0,8.5239480325,-0
 .5039480325,-3.6612755629\C,0,7.0138751537,1.0061248463,-4.9235927708\
 C,0,9.0061250889,-0.9861250889,-4.9235926697\C,0,7.5036786493,0.516321
 3507,-6.096356521\C,0,8.5163216812,-0.4963216812,-6.0963564796\C,0,7.0
 155315689,1.0044684311,-2.4533174875\C,0,7.495511574,0.524488426,-1.21
 40288145\C,0,9.0044685359,-0.9844685359,-2.4533173917\C,0,8.5244885437
 ,-0.5044885437,-1.2140288362\H,0,6.2466440333,1.7733559667,-4.92326004
 59\H,0,6.2478133187,1.7721866813,-2.4539285815\H,0,9.7721859268,-1.752
 1859268,-2.4539284818\H,0,9.7733558421,-1.7533558421,-4.9232597785\H,0
 ,8.8905568758,-0.8705568758,-7.0425276922\H,0,7.1294434954,0.890556504
 6,-7.042527775\C,0,7.0151815039,1.0048184961,0.0099998782\C,0,7.495511
 6043,0.5244883957,1.2340295553\C,0,9.0048185643,-0.9848185643,0.009999
 8696\C,0,8.5244885146,-0.5044885146,1.2340295261\H,0,6.2475300303,1.77
 24699697,0.0099999205\H,0,9.772468921,-1.752468921,0.0099999641\C,0,7.
 0155316952,1.0044683048,2.4733171385\C,0,7.4960522886,0.5239477114,3.6
 81276331\C,0,9.0044684211,-0.9844684211,2.4733170835\C,0,8.5239479079,
 -0.5039479079,3.6812763217\H,0,6.2478134473,1.7721865527,2.4739285326\
 H,0,9.7721858092,-1.7521858092,2.4739283796\C,0,7.0138754823,1.0061245
 177,4.9435920588\C,0,7.5036790628,0.5163209372,6.116356633\C,0,9.00612
 47659,-0.9861247659,4.9435919377\C,0,8.5163212637,-0.4963212637,6.1163
 566075\H,0,6.2466443496,1.7733556504,4.9432601504\H,0,7.1294432574,0.8
 905567426,7.0625274368\H,0,8.8905570967,-0.8705570967,7.0625272142\H,0
 ,9.7733555414,-1.7533555414,4.9432599297\\Version=Fujitsu-Arm-G16RevC.
 01\State=1-A'\HF=-847.0198415\RMSD=3.186e-09\Dipole=0.0000189,-0.00001
 87,0.\Quadrupole=-7.8783043,-6.5002268,14.3785311,-18.3248264,0.,0.\PG
 =CS [SG(C4H4),X(C40H24)]\\@


  ON THE CHOICE OF THE CORRECT LANGUAGE -
 I SPEAK SPANISH TO GOD, ITALIAN TO WOMEN,
 FRENCH TO MEN, AND GERMAN TO MY HORSE.
          -- CHARLES V
 Job cpu time:       0 days  2 hours 44 minutes  3.8 seconds.
 Elapsed time:       0 days  0 hours  4 minutes 18.5 seconds.
 File lengths (MBytes):  RWF=    718 Int=      0 D2E=      0 Chk=    208 Scr=      1
 Normal termination of Gaussian 16 at Wed Sep 27 17:16:00 2023.
