 Entering Gaussian System, Link 0=g16
 Initial command:
 /home/center/opt/aarch64/apps/gaussian16/c01/g16/l1.exe "/data/tmp/Gtmp/1006933/Gau-52.inp" -scrdir="/data/tmp/Gtmp/1006933/"
 Entering Link 1 = /home/center/opt/aarch64/apps/gaussian16/c01/g16/l1.exe PID=        53.
  
 Copyright (c) 1988-2019, Gaussian, Inc.  All Rights Reserved.
  
 This is part of the Gaussian(R) 16 program.  It is based on
 the Gaussian(R) 09 system (copyright 2009, Gaussian, Inc.),
 the Gaussian(R) 03 system (copyright 2003, Gaussian, Inc.),
 the Gaussian(R) 98 system (copyright 1998, Gaussian, Inc.),
 the Gaussian(R) 94 system (copyright 1995, Gaussian, Inc.),
 the Gaussian 92(TM) system (copyright 1992, Gaussian, Inc.),
 the Gaussian 90(TM) system (copyright 1990, Gaussian, Inc.),
 the Gaussian 88(TM) system (copyright 1988, Gaussian, Inc.),
 the Gaussian 86(TM) system (copyright 1986, Carnegie Mellon
 University), and the Gaussian 82(TM) system (copyright 1983,
 Carnegie Mellon University). Gaussian is a federally registered
 trademark of Gaussian, Inc.
  
 This software contains proprietary and confidential information,
 including trade secrets, belonging to Gaussian, Inc.
  
 This software is provided under written license and may be
 used, copied, transmitted, or stored only in accord with that
 written license.
  
 The following legend is applicable only to US Government
 contracts under FAR:
  
                    RESTRICTED RIGHTS LEGEND
  
 Use, reproduction and disclosure by the US Government is
 subject to restrictions as set forth in subparagraphs (a)
 and (c) of the Commercial Computer Software - Restricted
 Rights clause in FAR 52.227-19.
  
 Gaussian, Inc.
 340 Quinnipiac St., Bldg. 40, Wallingford CT 06492
  
  
 ---------------------------------------------------------------
 Warning -- This program may not be used in any manner that
 competes with the business of Gaussian, Inc. or will provide
 assistance to any competitor of Gaussian, Inc.  The licensee
 of this program is prohibited from giving any competitor of
 Gaussian, Inc. access to this program.  By using this program,
 the user acknowledges that Gaussian, Inc. is engaged in the
 business of creating and licensing software in the field of
 computational chemistry and represents and warrants to the
 licensee that it is not a competitor of Gaussian, Inc. and that
 it will not use this program in any manner prohibited above.
 ---------------------------------------------------------------
  

 Cite this work as:
 Gaussian 16, Revision C.01,
 M. J. Frisch, G. W. Trucks, H. B. Schlegel, G. E. Scuseria, 
 M. A. Robb, J. R. Cheeseman, G. Scalmani, V. Barone, 
 G. A. Petersson, H. Nakatsuji, X. Li, M. Caricato, A. V. Marenich, 
 J. Bloino, B. G. Janesko, R. Gomperts, B. Mennucci, H. P. Hratchian, 
 J. V. Ortiz, A. F. Izmaylov, J. L. Sonnenberg, D. Williams-Young, 
 F. Ding, F. Lipparini, F. Egidi, J. Goings, B. Peng, A. Petrone, 
 T. Henderson, D. Ranasinghe, V. G. Zakrzewski, J. Gao, N. Rega, 
 G. Zheng, W. Liang, M. Hada, M. Ehara, K. Toyota, R. Fukuda, 
 J. Hasegawa, M. Ishida, T. Nakajima, Y. Honda, O. Kitao, H. Nakai, 
 T. Vreven, K. Throssell, J. A. Montgomery, Jr., J. E. Peralta, 
 F. Ogliaro, M. J. Bearpark, J. J. Heyd, E. N. Brothers, K. N. Kudin, 
 V. N. Staroverov, T. A. Keith, R. Kobayashi, J. Normand, 
 K. Raghavachari, A. P. Rendell, J. C. Burant, S. S. Iyengar, 
 J. Tomasi, M. Cossi, J. M. Millam, M. Klene, C. Adamo, R. Cammi, 
 J. W. Ochterski, R. L. Martin, K. Morokuma, O. Farkas, 
 J. B. Foresman, and D. J. Fox, Gaussian, Inc., Wallingford CT, 2019.
 
 ************************************************
 Gaussian 16:  Fujitsu-Arm-G16RevC.01  3-Jul-2019
                   27-Sep-2023 
 ************************************************
 %mem=24GB
 %nproc=42
 Will use up to   42 processors via shared memory.
 -------------------------------------------------------------
 #P TEST b3lyp/6-311G** EmpiricalDispersion=GD3 counterpoise=2
 -------------------------------------------------------------
 1/38=1,62=2,172=1/1;
 2/12=2,17=6,18=5,40=1/2;
 1/38=1,53=2,62=2,63=1/22;
 3/5=4,6=6,7=101,11=2,25=1,30=1,74=-5,124=31/1,2,3;
 4//1;
 5/5=2,38=5/2;
 6/7=2,8=2,9=2,10=2,28=1/1;
 1/53=2,62=2,63=1/22;
 3/5=7,6=11,7=101,11=2,25=1,30=1,74=-5,82=7,124=31/1,2,3;
 4//1;
 5/5=2,38=5/2;
 6/7=2,8=2,9=2,10=2,28=1/1;
 1/53=2,62=2,63=1/22(-4);
 99/5=1,9=1/99;
 Leave Link    1 at Wed Sep 27 16:37:38 2023, MaxMem=  3221225472 cpu:               6.9 elap:               0.2
 (Enter /home/center/opt/aarch64/apps/gaussian16/c01/g16/l101.exe)
 ----------------------------
 pentacene_A1=0_A2=0_A3=45_t1
 ----------------------------
 Symbolic Z-matrix:
 Charge =  0 Multiplicity = 1 in supermolecule
 Charge =  0 Multiplicity = 1 in fragment      1.
 Charge =  0 Multiplicity = 1 in fragment      2.
 C(Fragment=1)        -0.50395   0.52395  -3.66128 
 C(Fragment=1)         0.52395  -0.50395  -3.66128 
 C(Fragment=1)        -0.98612   1.00612  -4.92359 
 C(Fragment=1)         1.00613  -0.98613  -4.92359 
 C(Fragment=1)        -0.49632   0.51632  -6.09636 
 C(Fragment=1)         0.51632  -0.49632  -6.09636 
 C(Fragment=1)        -0.98447   1.00447  -2.45332 
 C(Fragment=1)        -0.50449   0.52449  -1.21403 
 C(Fragment=1)         1.00447  -0.98447  -2.45332 
 C(Fragment=1)         0.52449  -0.50449  -1.21403 
 H(Fragment=1)        -1.75336   1.77336  -4.92326 
 H(Fragment=1)        -1.75219   1.77219  -2.45393 
 H(Fragment=1)         1.77219  -1.75219  -2.45393 
 H(Fragment=1)         1.77336  -1.75336  -4.92326 
 H(Fragment=1)         0.89056  -0.87056  -7.04253 
 H(Fragment=1)        -0.87056   0.89056  -7.04253 
 C(Fragment=1)        -0.98482   1.00482   0.01 
 C(Fragment=1)        -0.50449   0.52449   1.23403 
 C(Fragment=1)         1.00482  -0.98482   0.01 
 C(Fragment=1)         0.52449  -0.50449   1.23403 
 H(Fragment=1)        -1.75247   1.77247   0.01 
 H(Fragment=1)         1.77247  -1.75247   0.01 
 C(Fragment=1)        -0.98447   1.00447   2.47332 
 C(Fragment=1)        -0.50395   0.52395   3.68128 
 C(Fragment=1)         1.00447  -0.98447   2.47332 
 C(Fragment=1)         0.52395  -0.50395   3.68128 
 H(Fragment=1)        -1.75219   1.77219   2.47393 
 H(Fragment=1)         1.77219  -1.75219   2.47393 
 C(Fragment=1)        -0.98612   1.00612   4.94359 
 C(Fragment=1)        -0.49632   0.51632   6.11636 
 C(Fragment=1)         1.00612  -0.98612   4.94359 
 C(Fragment=1)         0.51632  -0.49632   6.11636 
 H(Fragment=1)        -1.75336   1.77336   4.94326 
 H(Fragment=1)        -0.87056   0.89056   7.06253 
 H(Fragment=1)         0.89056  -0.87056   7.06253 
 H(Fragment=1)         1.77336  -1.75336   4.94326 
 C(Fragment=2)         3.27395   4.27395  -3.66128 
 C(Fragment=2)         2.24605   3.24605  -3.66128 
 C(Fragment=2)         3.75612   4.75612  -4.92359 
 C(Fragment=2)         1.76387   2.76387  -4.92359 
 C(Fragment=2)         3.26632   4.26632  -6.09636 
 C(Fragment=2)         2.25368   3.25368  -6.09636 
 C(Fragment=2)         3.75447   4.75447  -2.45332 
 C(Fragment=2)         3.27449   4.27449  -1.21403 
 C(Fragment=2)         1.76553   2.76553  -2.45332 
 C(Fragment=2)         2.24551   3.24551  -1.21403 
 H(Fragment=2)         4.52336   5.52336  -4.92326 
 H(Fragment=2)         4.52219   5.52219  -2.45393 
 H(Fragment=2)         0.99781   1.99781  -2.45393 
 H(Fragment=2)         0.99664   1.99664  -4.92326 
 H(Fragment=2)         1.87944   2.87944  -7.04253 
 H(Fragment=2)         3.64056   4.64056  -7.04253 
 C(Fragment=2)         3.75482   4.75482   0.01 
 C(Fragment=2)         3.27449   4.27449   1.23403 
 C(Fragment=2)         1.76518   2.76518   0.01 
 C(Fragment=2)         2.24551   3.24551   1.23403 
 H(Fragment=2)         4.52247   5.52247   0.01 
 H(Fragment=2)         0.99753   1.99753   0.01 
 C(Fragment=2)         3.75447   4.75447   2.47332 
 C(Fragment=2)         3.27395   4.27395   3.68128 
 C(Fragment=2)         1.76553   2.76553   2.47332 
 C(Fragment=2)         2.24605   3.24605   3.68128 
 H(Fragment=2)         4.52219   5.52219   2.47393 
 H(Fragment=2)         0.99781   1.99781   2.47393 
 C(Fragment=2)         3.75612   4.75612   4.94359 
 C(Fragment=2)         3.26632   4.26632   6.11636 
 C(Fragment=2)         1.76388   2.76388   4.94359 
 C(Fragment=2)         2.25368   3.25368   6.11636 
 H(Fragment=2)         4.52336   5.52336   4.94326 
 H(Fragment=2)         3.64056   4.64056   7.06253 
 H(Fragment=2)         1.87944   2.87944   7.06253 
 H(Fragment=2)         0.99664   1.99664   4.94326 
 
 ITRead=  0  0  0  0  0  0  0  0  0  0  0  0  0  0  0  0  0  0  0  0
 ITRead=  0  0  0  0  0  0  0  0  0  0  0  0  0  0  0  0  0  0  0  0
 ITRead=  0  0  0  0  0  0  0  0  0  0  0  0  0  0  0  0  0  0  0  0
 ITRead=  0  0  0  0  0  0  0  0  0  0  0  0
 MicOpt= -1 -1 -1 -1 -1 -1 -1 -1 -1 -1 -1 -1 -1 -1 -1 -1 -1 -1 -1 -1
 MicOpt= -1 -1 -1 -1 -1 -1 -1 -1 -1 -1 -1 -1 -1 -1 -1 -1 -1 -1 -1 -1
 MicOpt= -1 -1 -1 -1 -1 -1 -1 -1 -1 -1 -1 -1 -1 -1 -1 -1 -1 -1 -1 -1
 MicOpt= -1 -1 -1 -1 -1 -1 -1 -1 -1 -1 -1 -1
 NAtoms=     72 NQM=       72 NQMF=       0 NMMI=      0 NMMIF=      0
                NMic=       0 NMicF=      0.
                    Isotopes and Nuclear Properties:
 (Nuclear quadrupole moments (NQMom) in fm**2, nuclear magnetic moments (NMagM)
  in nuclear magnetons)

  Atom         1           2           3           4           5           6           7           8           9          10
 IAtWgt=          12          12          12          12          12          12          12          12          12          12
 AtmWgt=  12.0000000  12.0000000  12.0000000  12.0000000  12.0000000  12.0000000  12.0000000  12.0000000  12.0000000  12.0000000
 NucSpn=           0           0           0           0           0           0           0           0           0           0
 AtZEff=   0.0000000   0.0000000   0.0000000   0.0000000   0.0000000   0.0000000   0.0000000   0.0000000   0.0000000   0.0000000
 NQMom=    0.0000000   0.0000000   0.0000000   0.0000000   0.0000000   0.0000000   0.0000000   0.0000000   0.0000000   0.0000000
 NMagM=    0.0000000   0.0000000   0.0000000   0.0000000   0.0000000   0.0000000   0.0000000   0.0000000   0.0000000   0.0000000
 AtZNuc=   6.0000000   6.0000000   6.0000000   6.0000000   6.0000000   6.0000000   6.0000000   6.0000000   6.0000000   6.0000000

  Atom        11          12          13          14          15          16          17          18          19          20
 IAtWgt=           1           1           1           1           1           1          12          12          12          12
 AtmWgt=   1.0078250   1.0078250   1.0078250   1.0078250   1.0078250   1.0078250  12.0000000  12.0000000  12.0000000  12.0000000
 NucSpn=           1           1           1           1           1           1           0           0           0           0
 AtZEff=   0.0000000   0.0000000   0.0000000   0.0000000   0.0000000   0.0000000   0.0000000   0.0000000   0.0000000   0.0000000
 NQMom=    0.0000000   0.0000000   0.0000000   0.0000000   0.0000000   0.0000000   0.0000000   0.0000000   0.0000000   0.0000000
 NMagM=    2.7928460   2.7928460   2.7928460   2.7928460   2.7928460   2.7928460   0.0000000   0.0000000   0.0000000   0.0000000
 AtZNuc=   1.0000000   1.0000000   1.0000000   1.0000000   1.0000000   1.0000000   6.0000000   6.0000000   6.0000000   6.0000000

  Atom        21          22          23          24          25          26          27          28          29          30
 IAtWgt=           1           1          12          12          12          12           1           1          12          12
 AtmWgt=   1.0078250   1.0078250  12.0000000  12.0000000  12.0000000  12.0000000   1.0078250   1.0078250  12.0000000  12.0000000
 NucSpn=           1           1           0           0           0           0           1           1           0           0
 AtZEff=   0.0000000   0.0000000   0.0000000   0.0000000   0.0000000   0.0000000   0.0000000   0.0000000   0.0000000   0.0000000
 NQMom=    0.0000000   0.0000000   0.0000000   0.0000000   0.0000000   0.0000000   0.0000000   0.0000000   0.0000000   0.0000000
 NMagM=    2.7928460   2.7928460   0.0000000   0.0000000   0.0000000   0.0000000   2.7928460   2.7928460   0.0000000   0.0000000
 AtZNuc=   1.0000000   1.0000000   6.0000000   6.0000000   6.0000000   6.0000000   1.0000000   1.0000000   6.0000000   6.0000000

  Atom        31          32          33          34          35          36          37          38          39          40
 IAtWgt=          12          12           1           1           1           1          12          12          12          12
 AtmWgt=  12.0000000  12.0000000   1.0078250   1.0078250   1.0078250   1.0078250  12.0000000  12.0000000  12.0000000  12.0000000
 NucSpn=           0           0           1           1           1           1           0           0           0           0
 AtZEff=   0.0000000   0.0000000   0.0000000   0.0000000   0.0000000   0.0000000   0.0000000   0.0000000   0.0000000   0.0000000
 NQMom=    0.0000000   0.0000000   0.0000000   0.0000000   0.0000000   0.0000000   0.0000000   0.0000000   0.0000000   0.0000000
 NMagM=    0.0000000   0.0000000   2.7928460   2.7928460   2.7928460   2.7928460   0.0000000   0.0000000   0.0000000   0.0000000
 AtZNuc=   6.0000000   6.0000000   1.0000000   1.0000000   1.0000000   1.0000000   6.0000000   6.0000000   6.0000000   6.0000000

  Atom        41          42          43          44          45          46          47          48          49          50
 IAtWgt=          12          12          12          12          12          12           1           1           1           1
 AtmWgt=  12.0000000  12.0000000  12.0000000  12.0000000  12.0000000  12.0000000   1.0078250   1.0078250   1.0078250   1.0078250
 NucSpn=           0           0           0           0           0           0           1           1           1           1
 AtZEff=   0.0000000   0.0000000   0.0000000   0.0000000   0.0000000   0.0000000   0.0000000   0.0000000   0.0000000   0.0000000
 NQMom=    0.0000000   0.0000000   0.0000000   0.0000000   0.0000000   0.0000000   0.0000000   0.0000000   0.0000000   0.0000000
 NMagM=    0.0000000   0.0000000   0.0000000   0.0000000   0.0000000   0.0000000   2.7928460   2.7928460   2.7928460   2.7928460
 AtZNuc=   6.0000000   6.0000000   6.0000000   6.0000000   6.0000000   6.0000000   1.0000000   1.0000000   1.0000000   1.0000000

  Atom        51          52          53          54          55          56          57          58          59          60
 IAtWgt=           1           1          12          12          12          12           1           1          12          12
 AtmWgt=   1.0078250   1.0078250  12.0000000  12.0000000  12.0000000  12.0000000   1.0078250   1.0078250  12.0000000  12.0000000
 NucSpn=           1           1           0           0           0           0           1           1           0           0
 AtZEff=   0.0000000   0.0000000   0.0000000   0.0000000   0.0000000   0.0000000   0.0000000   0.0000000   0.0000000   0.0000000
 NQMom=    0.0000000   0.0000000   0.0000000   0.0000000   0.0000000   0.0000000   0.0000000   0.0000000   0.0000000   0.0000000
 NMagM=    2.7928460   2.7928460   0.0000000   0.0000000   0.0000000   0.0000000   2.7928460   2.7928460   0.0000000   0.0000000
 AtZNuc=   1.0000000   1.0000000   6.0000000   6.0000000   6.0000000   6.0000000   1.0000000   1.0000000   6.0000000   6.0000000

  Atom        61          62          63          64          65          66          67          68          69          70
 IAtWgt=          12          12           1           1          12          12          12          12           1           1
 AtmWgt=  12.0000000  12.0000000   1.0078250   1.0078250  12.0000000  12.0000000  12.0000000  12.0000000   1.0078250   1.0078250
 NucSpn=           0           0           1           1           0           0           0           0           1           1
 AtZEff=   0.0000000   0.0000000   0.0000000   0.0000000   0.0000000   0.0000000   0.0000000   0.0000000   0.0000000   0.0000000
 NQMom=    0.0000000   0.0000000   0.0000000   0.0000000   0.0000000   0.0000000   0.0000000   0.0000000   0.0000000   0.0000000
 NMagM=    0.0000000   0.0000000   2.7928460   2.7928460   0.0000000   0.0000000   0.0000000   0.0000000   2.7928460   2.7928460
 AtZNuc=   6.0000000   6.0000000   1.0000000   1.0000000   6.0000000   6.0000000   6.0000000   6.0000000   1.0000000   1.0000000

  Atom        71          72
 IAtWgt=           1           1
 AtmWgt=   1.0078250   1.0078250
 NucSpn=           1           1
 AtZEff=   0.0000000   0.0000000
 NQMom=    0.0000000   0.0000000
 NMagM=    2.7928460   2.7928460
 AtZNuc=   1.0000000   1.0000000
 Leave Link  101 at Wed Sep 27 16:37:41 2023, MaxMem=  3221225472 cpu:               2.6 elap:               0.1
 (Enter /home/center/opt/aarch64/apps/gaussian16/c01/g16/l202.exe)
 Stoichiometry    C44H28
 Framework group  CS[SG(C4H4),X(C40H24)]
 Deg. of freedom   109
 Full point group                 CS      NOp   2
 Largest Abelian subgroup         CS      NOp   2
 Largest concise Abelian subgroup CS      NOp   2
                         Standard orientation:                         
 ---------------------------------------------------------------------
 Center     Atomic      Atomic             Coordinates (Angstroms)
 Number     Number       Type             X           Y           Z
 ---------------------------------------------------------------------
      1          6           0        0.373279   -2.298097    3.671276
      2          6           0       -1.080386   -2.298097    3.671276
      3          6           0        1.055180   -2.298097    4.933593
      4          6           0       -1.762287   -2.298097    4.933593
      5          6           0        0.362493   -2.298097    6.106357
      6          6           0       -1.069600   -2.298097    6.106357
      7          6           0        1.052837   -2.298097    2.463318
      8          6           0        0.374043   -2.298097    1.224029
      9          6           0       -1.759944   -2.298097    2.463317
     10          6           0       -1.081150   -2.298097    1.224029
     11          1           0        2.140209   -2.298097    4.933260
     12          1           0        2.138555   -2.298097    2.463929
     13          1           0       -2.845661   -2.298097    2.463929
     14          1           0       -2.847315   -2.298097    4.933260
     15          1           0       -1.598849   -2.298097    7.052528
     16          1           0        0.891742   -2.298097    7.052528
     17          6           0        1.053332   -2.298097    0.000000
     18          6           0        0.374043   -2.298097   -1.224029
     19          6           0       -1.760439   -2.298097    0.000000
     20          6           0       -1.081150   -2.298097   -1.224029
     21          1           0        2.138956   -2.298097    0.000000
     22          1           0       -2.846061   -2.298097    0.000000
     23          6           0        1.052837   -2.298097   -2.463318
     24          6           0        0.373279   -2.298097   -3.671276
     25          6           0       -1.759944   -2.298097   -2.463317
     26          6           0       -1.080386   -2.298097   -3.671276
     27          1           0        2.138555   -2.298097   -2.463929
     28          1           0       -2.845661   -2.298097   -2.463929
     29          6           0        1.055180   -2.298097   -4.933593
     30          6           0        0.362493   -2.298097   -6.106357
     31          6           0       -1.762287   -2.298097   -4.933593
     32          6           0       -1.069600   -2.298097   -6.106357
     33          1           0        2.140209   -2.298097   -4.933260
     34          1           0        0.891742   -2.298097   -7.052528
     35          1           0       -1.598849   -2.298097   -7.052528
     36          1           0       -2.847315   -2.298097   -4.933260
     37          6           0        0.353553    3.024929    3.671276
     38          6           0        0.353553    1.571265    3.671276
     39          6           0        0.353553    3.706830    4.933593
     40          6           0        0.353553    0.889363    4.933593
     41          6           0        0.353553    3.014144    6.106357
     42          6           0        0.353553    1.582050    6.106357
     43          6           0        0.353553    3.704488    2.463318
     44          6           0        0.353553    3.025694    1.224029
     45          6           0        0.353553    0.891706    2.463317
     46          6           0        0.353553    1.570500    1.224029
     47          1           0        0.353553    4.791859    4.933260
     48          1           0        0.353553    4.790205    2.463929
     49          1           0        0.353553   -0.194010    2.463929
     50          1           0        0.353553   -0.195665    4.933260
     51          1           0        0.353553    1.052802    7.052528
     52          1           0        0.353553    3.543392    7.052528
     53          6           0        0.353553    3.704983    0.000000
     54          6           0        0.353553    3.025694   -1.224029
     55          6           0        0.353553    0.891211    0.000000
     56          6           0        0.353553    1.570500   -1.224029
     57          1           0        0.353553    4.790606    0.000000
     58          1           0        0.353553   -0.194410    0.000000
     59          6           0        0.353553    3.704488   -2.463318
     60          6           0        0.353553    3.024929   -3.671276
     61          6           0        0.353553    0.891706   -2.463317
     62          6           0        0.353553    1.571265   -3.671276
     63          1           0        0.353553    4.790205   -2.463929
     64          1           0        0.353553   -0.194010   -2.463929
     65          6           0        0.353553    3.706830   -4.933593
     66          6           0        0.353553    3.014144   -6.106357
     67          6           0        0.353553    0.889363   -4.933593
     68          6           0        0.353553    1.582050   -6.106357
     69          1           0        0.353553    4.791859   -4.933260
     70          1           0        0.353553    3.543392   -7.052528
     71          1           0        0.353553    1.052802   -7.052528
     72          1           0        0.353553   -0.195665   -4.933260
 ---------------------------------------------------------------------
 Rotational constants (GHZ):           0.1340178           0.0563744           0.0422143
 Leave Link  202 at Wed Sep 27 16:37:43 2023, MaxMem=  3221225472 cpu:               0.6 elap:               0.0
 (Enter /home/center/opt/aarch64/apps/gaussian16/c01/g16/l122.exe)
 Counterpoise: doing full-system calculation.
 Leave Link  122 at Wed Sep 27 16:37:45 2023, MaxMem=  3221225472 cpu:               0.2 elap:               0.0
 (Enter /home/center/opt/aarch64/apps/gaussian16/c01/g16/l301.exe)
 Standard basis: 6-311G(d,p) (5D, 7F)
 Ernie: Thresh=  0.10000D-02 Tol=  0.10000D-05 Strict=F.
 There are   528 symmetry adapted cartesian basis functions of A'  symmetry.
 There are   476 symmetry adapted cartesian basis functions of A"  symmetry.
 There are   504 symmetry adapted basis functions of A'  symmetry.
 There are   456 symmetry adapted basis functions of A"  symmetry.
   960 basis functions,  1632 primitive gaussians,  1004 cartesian basis functions
   146 alpha electrons      146 beta electrons
       nuclear repulsion energy      4782.5227534195 Hartrees.
 IExCor=  402 DFT=T Ex+Corr=B3LYP ExCW=0 ScaHFX=  0.200000
 ScaDFX=  0.800000  0.720000  1.000000  0.810000 ScalE2=  1.000000  1.000000
 IRadAn=      5 IRanWt=     -1 IRanGd=            0 ICorTp=0 IEmpDi=131
 NAtoms=   72 NActive=   72 NUniq=   40 SFac= 3.24D+00 NAtFMM=   60 NAOKFM=T Big=F
 Integral buffers will be    131072 words long.
 Raffenetti 2 integral format.
 Two-electron integral symmetry is turned on.
 R6Disp:  Grimme-D3 Dispersion energy=       -0.0943644554 Hartrees.
 Nuclear repulsion after empirical dispersion term =     4782.4283889641 Hartrees.
 Leave Link  301 at Wed Sep 27 16:37:48 2023, MaxMem=  3221225472 cpu:               2.3 elap:               0.1
 (Enter /home/center/opt/aarch64/apps/gaussian16/c01/g16/l302.exe)
 NPDir=0 NMtPBC=     1 NCelOv=     1 NCel=       1 NClECP=     1 NCelD=      1
         NCelK=      1 NCelE2=     1 NClLst=     1 CellRange=     0.0.
 One-electron integrals computed using PRISM.
 One-electron integral symmetry used in STVInt
 NBasis=   960 RedAO= T EigKep=  3.62D-05  NBF=   504   456
 NBsUse=   960 1.00D-06 EigRej= -1.00D+00 NBFU=   504   456
 Precomputing XC quadrature grid using
 IXCGrd= 4 IRadAn=           5 IRanWt=          -1 IRanGd=           0 AccXCQ= 0.00D+00.
 Generated NRdTot=       0 NPtTot=           0 NUsed=           0 NTot=          32
 NSgBfM=   990   990   990   990   990 MxSgAt=    72 MxSgA2=    72.
 Leave Link  302 at Wed Sep 27 16:37:52 2023, MaxMem=  3221225472 cpu:              65.1 elap:               2.0
 (Enter /home/center/opt/aarch64/apps/gaussian16/c01/g16/l303.exe)
 DipDrv:  MaxL=1.
 Leave Link  303 at Wed Sep 27 16:37:55 2023, MaxMem=  3221225472 cpu:              13.8 elap:               0.4
 (Enter /home/center/opt/aarch64/apps/gaussian16/c01/g16/l401.exe)
 ExpMin= 1.03D-01 ExpMax= 4.56D+03 ExpMxC= 6.82D+02 IAcc=3 IRadAn=         5 AccDes= 0.00D+00
 Harris functional with IExCor=  402 and IRadAn=       5 diagonalized for initial guess.
 HarFok:  IExCor=  402 AccDes= 0.00D+00 IRadAn=         5 IDoV= 1 UseB2=F ITyADJ=14
 ICtDFT=  3500011 ScaDFX=  1.000000  1.000000  1.000000  1.000000
 FoFCou: FMM=F IPFlag=           0 FMFlag=      100000 FMFlg1=        2000
         NFxFlg=           0 DoJE=T BraDBF=F KetDBF=T FulRan=T
         wScrn=  0.000000 ICntrl=       500 IOpCl=  0 I1Cent=   200000004 NGrid=           0
         NMat0=    1 NMatS0=      1 NMatT0=    0 NMatD0=    1 NMtDS0=    0 NMtDT0=    0
 Petite list used in FoFCou.
 Harris En= -1694.11504172722    
 JPrj=0 DoOrth=F DoCkMO=F.
 Initial guess orbital symmetries:
       Occupied  (A") (A') (A") (A') (A") (A') (A") (A') (A') (A")
                 (A") (A') (A") (A') (A") (A') (A") (A') (A') (A")
                 (A') (A") (A') (A') (A") (A') (A') (A') (A") (A')
                 (A") (A') (A") (A') (A") (A') (A") (A') (A") (A')
                 (A") (A') (A') (A") (A') (A') (A") (A") (A') (A')
                 (A") (A") (A') (A') (A') (A') (A") (A") (A') (A')
                 (A") (A") (A") (A") (A') (A') (A') (A') (A") (A")
                 (A") (A") (A') (A') (A") (A") (A') (A') (A') (A')
                 (A') (A') (A") (A") (A") (A") (A') (A") (A") (A')
                 (A') (A') (A") (A") (A') (A') (A') (A") (A') (A")
                 (A') (A') (A") (A") (A") (A") (A') (A') (A') (A')
                 (A") (A") (A') (A') (A") (A") (A") (A') (A') (A")
                 (A') (A") (A") (A') (A') (A') (A") (A") (A') (A')
                 (A") (A") (A') (A') (A") (A") (A') (A') (A') (A')
                 (A") (A") (A") (A") (A') (A')
       Virtual   (A') (A') (A") (A") (A") (A") (A') (A') (A') (A')
                 (A") (A") (A') (A') (A") (A") (A') (A") (A') (A')
                 (A') (A') (A") (A') (A") (A') (A") (A") (A') (A')
                 (A") (A') (A") (A") (A") (A") (A') (A') (A') (A')
                 (A") (A') (A") (A') (A") (A') (A") (A') (A') (A')
                 (A') (A") (A') (A") (A') (A') (A") (A") (A') (A")
                 (A') (A") (A") (A") (A') (A') (A") (A') (A") (A")
                 (A') (A") (A') (A') (A") (A') (A") (A") (A') (A')
                 (A') (A") (A') (A") (A') (A") (A') (A") (A') (A')
                 (A") (A') (A") (A") (A') (A') (A") (A') (A") (A")
                 (A') (A') (A') (A") (A') (A") (A') (A") (A") (A')
                 (A') (A") (A") (A') (A') (A') (A") (A") (A') (A')
                 (A") (A') (A") (A") (A') (A') (A') (A") (A") (A')
                 (A") (A') (A") (A') (A") (A") (A') (A") (A') (A')
                 (A') (A") (A") (A") (A') (A') (A') (A") (A') (A')
                 (A') (A") (A') (A") (A") (A") (A") (A') (A") (A')
                 (A') (A') (A") (A") (A') (A') (A") (A') (A') (A")
                 (A") (A') (A') (A') (A') (A") (A") (A') (A") (A")
                 (A') (A") (A') (A') (A") (A") (A') (A') (A") (A')
                 (A") (A') (A") (A') (A") (A') (A") (A') (A') (A")
                 (A") (A') (A') (A") (A') (A") (A") (A') (A") (A')
                 (A") (A') (A") (A') (A") (A') (A') (A") (A') (A")
                 (A') (A") (A") (A') (A") (A') (A') (A") (A') (A')
                 (A') (A") (A') (A") (A') (A") (A') (A") (A') (A")
                 (A") (A') (A') (A") (A') (A") (A") (A') (A') (A")
                 (A") (A') (A") (A') (A') (A") (A") (A') (A') (A")
                 (A") (A") (A') (A') (A") (A') (A") (A") (A') (A")
                 (A') (A") (A') (A') (A") (A') (A') (A") (A') (A')
                 (A") (A") (A') (A') (A") (A") (A') (A") (A') (A")
                 (A") (A') (A") (A') (A") (A") (A') (A') (A") (A')
                 (A") (A') (A') (A') (A") (A") (A') (A') (A") (A")
                 (A") (A") (A') (A") (A') (A') (A') (A') (A') (A")
                 (A") (A') (A") (A') (A') (A") (A") (A") (A') (A")
                 (A') (A") (A') (A") (A') (A') (A") (A') (A") (A')
                 (A") (A') (A') (A") (A") (A') (A') (A") (A') (A")
                 (A') (A") (A') (A') (A") (A') (A') (A') (A") (A')
                 (A') (A") (A") (A') (A") (A") (A') (A") (A") (A")
                 (A') (A") (A') (A") (A') (A") (A") (A') (A') (A")
                 (A') (A') (A') (A") (A') (A") (A') (A') (A") (A")
                 (A') (A') (A') (A") (A") (A') (A") (A') (A") (A')
                 (A") (A') (A") (A') (A') (A") (A") (A') (A") (A')
                 (A') (A") (A') (A') (A') (A") (A") (A') (A") (A')
                 (A') (A') (A") (A") (A') (A') (A") (A') (A") (A")
                 (A') (A") (A") (A") (A') (A') (A") (A') (A") (A")
                 (A") (A') (A") (A') (A') (A') (A") (A") (A') (A')
                 (A') (A") (A") (A') (A") (A') (A") (A') (A") (A")
                 (A') (A') (A") (A") (A') (A") (A') (A") (A') (A')
                 (A") (A') (A") (A") (A') (A') (A') (A') (A") (A")
                 (A') (A') (A") (A') (A") (A") (A") (A") (A') (A")
                 (A") (A') (A') (A") (A") (A") (A') (A") (A') (A')
                 (A") (A') (A') (A') (A") (A') (A") (A') (A") (A')
                 (A") (A") (A") (A') (A') (A") (A') (A") (A') (A")
                 (A') (A') (A") (A') (A') (A") (A') (A") (A") (A')
                 (A") (A') (A") (A") (A') (A") (A') (A") (A') (A')
                 (A") (A') (A") (A') (A") (A") (A') (A") (A') (A")
                 (A') (A") (A") (A') (A") (A') (A') (A") (A') (A')
                 (A") (A') (A') (A") (A") (A') (A") (A') (A') (A")
                 (A") (A') (A") (A') (A") (A") (A') (A") (A') (A')
                 (A') (A') (A") (A") (A') (A') (A') (A") (A') (A')
                 (A") (A') (A") (A') (A") (A') (A") (A") (A') (A")
                 (A') (A") (A') (A") (A') (A') (A") (A') (A') (A")
                 (A') (A") (A") (A') (A") (A') (A") (A') (A') (A')
                 (A") (A') (A") (A") (A") (A') (A") (A') (A') (A")
                 (A') (A') (A") (A') (A") (A') (A") (A') (A") (A")
                 (A") (A') (A') (A") (A') (A") (A') (A') (A") (A')
                 (A') (A") (A') (A") (A') (A') (A") (A') (A") (A')
                 (A") (A") (A') (A') (A") (A") (A') (A') (A") (A')
                 (A') (A") (A") (A") (A') (A") (A') (A") (A') (A')
                 (A") (A') (A") (A') (A') (A") (A") (A') (A") (A")
                 (A') (A') (A") (A') (A") (A') (A') (A") (A') (A")
                 (A") (A') (A") (A') (A") (A') (A') (A") (A") (A')
                 (A") (A") (A') (A') (A") (A') (A') (A") (A') (A')
                 (A") (A") (A') (A") (A') (A') (A") (A') (A') (A")
                 (A") (A') (A') (A") (A") (A') (A') (A") (A') (A")
                 (A") (A') (A') (A") (A') (A') (A") (A') (A') (A")
                 (A') (A") (A') (A") (A') (A") (A') (A') (A") (A")
                 (A") (A') (A") (A') (A") (A") (A') (A") (A') (A")
                 (A') (A') (A") (A") (A') (A') (A') (A") (A') (A")
                 (A") (A') (A") (A') (A") (A') (A') (A") (A') (A")
                 (A') (A") (A") (A") (A') (A') (A') (A") (A') (A")
                 (A') (A') (A") (A") (A') (A') (A") (A') (A') (A")
                 (A') (A") (A') (A")
 The electronic state of the initial guess is 1-A'.
 Leave Link  401 at Wed Sep 27 16:38:00 2023, MaxMem=  3221225472 cpu:             107.2 elap:               2.7
 (Enter /home/center/opt/aarch64/apps/gaussian16/c01/g16/l502.exe)
 Integral symmetry usage will be decided dynamically.
 Closed shell SCF:
 Using DIIS extrapolation, IDIIS=  1040.
 NGot=  3221225472 LenX=  3219153746 LenY=  3218144726
 Requested convergence on RMS density matrix=1.00D-08 within 128 cycles.
 Requested convergence on MAX density matrix=1.00D-06.
 Requested convergence on             energy=1.00D-06.
 No special actions if energy rises.
 Fock matrices will be formed incrementally for  20 cycles.
 Integral accuracy reduced to 1.0D-05 until final iterations.

 Cycle   1  Pass 0  IDiag  1:
 FoFJK:  IHMeth= 1 ICntrl=       0 DoSepK=F KAlg= 0 I1Cent=           0 FoldK=F
 IRaf= 580000000 NMat=       1 IRICut=       1 DoRegI=T DoRafI=F ISym2E= 1 IDoP0=0 IntGTp=1.
 FoFCou: FMM=F IPFlag=           0 FMFlag=      100000 FMFlg1=        2000
         NFxFlg=           0 DoJE=F BraDBF=F KetDBF=F FulRan=T
         wScrn=  0.000000 ICntrl=         0 IOpCl=  0 I1Cent=           0 NGrid=           0
         NMat0=    1 NMatS0=      1 NMatT0=    0 NMatD0=    1 NMtDS0=    0 NMtDT0=    0
 Petite list used in FoFCou.
 E= -1693.16889661252    
 DIIS: error= 4.38D-02 at cycle   1 NSaved=   1.
 NSaved= 1 IEnMin= 1 EnMin= -1693.16889661252     IErMin= 1 ErrMin= 4.38D-02
 ErrMax= 4.38D-02  0.00D+00 EMaxC= 1.00D-01 BMatC= 8.90D-01 BMatP= 8.90D-01
 IDIUse=3 WtCom= 5.62D-01 WtEn= 4.38D-01
 Coeff-Com:  0.100D+01
 Coeff-En:   0.100D+01
 Coeff:      0.100D+01
 Gap=     0.051 Goal=   None    Shift=    0.000
 GapD=    0.051 DampG=0.500 DampE=0.500 DampFc=0.2500 IDamp=-1.
 Damping current iteration by 2.50D-01
 RMSDP=1.75D-03 MaxDP=8.51D-02              OVMax= 1.65D-01

 Cycle   2  Pass 0  IDiag  1:
 RMSU=  4.23D-04    CP:  9.82D-01
 E= -1693.47192992367     Delta-E=       -0.303033311146 Rises=F Damp=T
 DIIS: error= 2.56D-02 at cycle   2 NSaved=   2.
 NSaved= 2 IEnMin= 2 EnMin= -1693.47192992367     IErMin= 2 ErrMin= 2.56D-02
 ErrMax= 2.56D-02  0.00D+00 EMaxC= 1.00D-01 BMatC= 2.99D-01 BMatP= 8.90D-01
 IDIUse=3 WtCom= 7.44D-01 WtEn= 2.56D-01
 Coeff-Com: -0.123D+01 0.223D+01
 Coeff-En:   0.000D+00 0.100D+01
 Coeff:     -0.912D+00 0.191D+01
 Gap=     0.051 Goal=   None    Shift=    0.000
 RMSDP=7.18D-04 MaxDP=3.46D-02 DE=-3.03D-01 OVMax= 1.55D-01

 Cycle   3  Pass 0  IDiag  1:
 RMSU=  4.61D-04    CP:  9.56D-01  2.24D+00
 E= -1694.02442490334     Delta-E=       -0.552494979669 Rises=F Damp=F
 DIIS: error= 7.94D-03 at cycle   3 NSaved=   3.
 NSaved= 3 IEnMin= 3 EnMin= -1694.02442490334     IErMin= 3 ErrMin= 7.94D-03
 ErrMax= 7.94D-03  0.00D+00 EMaxC= 1.00D-01 BMatC= 1.49D-02 BMatP= 2.99D-01
 IDIUse=3 WtCom= 9.21D-01 WtEn= 7.94D-02
 Coeff-Com: -0.323D+00 0.633D+00 0.689D+00
 Coeff-En:   0.000D+00 0.000D+00 0.100D+01
 Coeff:     -0.297D+00 0.583D+00 0.714D+00
 Gap=     0.060 Goal=   None    Shift=    0.000
 RMSDP=3.18D-04 MaxDP=2.06D-02 DE=-5.52D-01 OVMax= 1.84D-01

 Cycle   4  Pass 0  IDiag  1:
 RMSU=  2.69D-04    CP:  9.57D-01  2.18D+00  6.36D-01
 E= -1694.01230010520     Delta-E=        0.012124798141 Rises=F Damp=F
 DIIS: error= 1.32D-02 at cycle   4 NSaved=   4.
 NSaved= 4 IEnMin= 3 EnMin= -1694.02442490334     IErMin= 3 ErrMin= 7.94D-03
 ErrMax= 1.32D-02  0.00D+00 EMaxC= 1.00D-01 BMatC= 2.36D-02 BMatP= 1.49D-02
 IDIUse=2 WtCom= 0.00D+00 WtEn= 1.00D+00
 Coeff-En:   0.000D+00 0.000D+00 0.603D+00 0.397D+00
 Coeff:      0.000D+00 0.000D+00 0.603D+00 0.397D+00
 Gap=     0.054 Goal=   None    Shift=    0.000
 RMSDP=1.81D-04 MaxDP=1.34D-02 DE= 1.21D-02 OVMax= 1.32D-01

 Cycle   5  Pass 0  IDiag  1:
 RMSU=  8.75D-05    CP:  9.57D-01  2.16D+00  7.51D-01  4.46D-01
 E= -1694.04008823304     Delta-E=       -0.027788127848 Rises=F Damp=F
 DIIS: error= 1.83D-03 at cycle   5 NSaved=   5.
 NSaved= 5 IEnMin= 5 EnMin= -1694.04008823304     IErMin= 5 ErrMin= 1.83D-03
 ErrMax= 1.83D-03  0.00D+00 EMaxC= 1.00D-01 BMatC= 1.18D-03 BMatP= 1.49D-02
 IDIUse=3 WtCom= 9.82D-01 WtEn= 1.83D-02
 Coeff-Com: -0.161D-01 0.376D-01 0.291D+00 0.205D+00 0.483D+00
 Coeff-En:   0.000D+00 0.000D+00 0.000D+00 0.000D+00 0.100D+01
 Coeff:     -0.158D-01 0.369D-01 0.285D+00 0.202D+00 0.492D+00
 Gap=     0.055 Goal=   None    Shift=    0.000
 RMSDP=5.47D-05 MaxDP=3.58D-03 DE=-2.78D-02 OVMax= 2.54D-02

 Cycle   6  Pass 0  IDiag  1:
 RMSU=  3.72D-05    CP:  9.57D-01  2.18D+00  7.75D-01  4.69D-01  5.75D-01
 E= -1694.04081856509     Delta-E=       -0.000730332052 Rises=F Damp=F
 DIIS: error= 1.27D-03 at cycle   6 NSaved=   6.
 NSaved= 6 IEnMin= 6 EnMin= -1694.04081856509     IErMin= 6 ErrMin= 1.27D-03
 ErrMax= 1.27D-03  0.00D+00 EMaxC= 1.00D-01 BMatC= 4.03D-04 BMatP= 1.18D-03
 IDIUse=3 WtCom= 9.87D-01 WtEn= 1.27D-02
 Coeff-Com: -0.207D-02 0.422D-02 0.127D+00 0.889D-01 0.374D+00 0.408D+00
 Coeff-En:   0.000D+00 0.000D+00 0.000D+00 0.000D+00 0.317D+00 0.683D+00
 Coeff:     -0.205D-02 0.416D-02 0.125D+00 0.877D-01 0.374D+00 0.411D+00
 Gap=     0.055 Goal=   None    Shift=    0.000
 RMSDP=2.76D-05 MaxDP=1.58D-03 DE=-7.30D-04 OVMax= 1.08D-02

 Cycle   7  Pass 0  IDiag  1:
 RMSU=  1.06D-05    CP:  9.57D-01  2.18D+00  7.81D-01  4.53D-01  6.45D-01
                    CP:  3.48D-01
 E= -1694.04129908218     Delta-E=       -0.000480517080 Rises=F Damp=F
 DIIS: error= 3.24D-04 at cycle   7 NSaved=   7.
 NSaved= 7 IEnMin= 7 EnMin= -1694.04129908218     IErMin= 7 ErrMin= 3.24D-04
 ErrMax= 3.24D-04  0.00D+00 EMaxC= 1.00D-01 BMatC= 2.41D-05 BMatP= 4.03D-04
 IDIUse=3 WtCom= 9.97D-01 WtEn= 3.24D-03
 EnCoef did     2 forward-backward iterations
 Coeff-Com:  0.765D-03-0.148D-02 0.606D-01 0.416D-01 0.204D+00 0.270D+00
 Coeff-Com:  0.424D+00
 Coeff-En:   0.000D+00 0.000D+00 0.000D+00 0.000D+00 0.000D+00 0.148D-02
 Coeff-En:   0.999D+00
 Coeff:      0.763D-03-0.147D-02 0.604D-01 0.414D-01 0.204D+00 0.269D+00
 Coeff:      0.426D+00
 Gap=     0.055 Goal=   None    Shift=    0.000
 RMSDP=6.54D-06 MaxDP=3.77D-04 DE=-4.81D-04 OVMax= 2.87D-03

 Initial convergence to 1.0D-05 achieved.  Increase integral accuracy.
 Cycle   8  Pass 1  IDiag  1:
 E= -1694.04101431339     Delta-E=        0.000284768786 Rises=F Damp=F
 DIIS: error= 8.23D-04 at cycle   1 NSaved=   1.
 NSaved= 1 IEnMin= 1 EnMin= -1694.04101431339     IErMin= 1 ErrMin= 8.23D-04
 ErrMax= 8.23D-04  0.00D+00 EMaxC= 1.00D-01 BMatC= 4.99D-05 BMatP= 4.99D-05
 IDIUse=3 WtCom= 9.92D-01 WtEn= 8.23D-03
 Coeff-Com:  0.100D+01
 Coeff-En:   0.100D+01
 Coeff:      0.100D+01
 Gap=     0.055 Goal=   None    Shift=    0.000
 RMSDP=6.54D-06 MaxDP=3.77D-04 DE= 2.85D-04 OVMax= 3.17D-03

 Cycle   9  Pass 1  IDiag  1:
 RMSU=  3.16D-04    CP:  9.99D-01
 E= -1694.04104909675     Delta-E=       -0.000034783361 Rises=F Damp=F
 DIIS: error= 2.47D-04 at cycle   2 NSaved=   2.
 NSaved= 2 IEnMin= 2 EnMin= -1694.04104909675     IErMin= 2 ErrMin= 2.47D-04
 ErrMax= 2.47D-04  0.00D+00 EMaxC= 1.00D-01 BMatC= 9.07D-06 BMatP= 4.99D-05
 IDIUse=3 WtCom= 9.98D-01 WtEn= 2.47D-03
 Coeff-Com:  0.187D+00 0.813D+00
 Coeff-En:   0.000D+00 0.100D+01
 Coeff:      0.187D+00 0.813D+00
 Gap=     0.055 Goal=   None    Shift=    0.000
 RMSDP=1.13D-05 MaxDP=8.55D-04 DE=-3.48D-05 OVMax= 7.38D-03

 Cycle  10  Pass 1  IDiag  1:
 RMSU=  1.09D-05    CP:  9.99D-01  1.01D+00
 E= -1694.04101309371     Delta-E=        0.000036003041 Rises=F Damp=F
 DIIS: error= 5.46D-04 at cycle   3 NSaved=   3.
 NSaved= 3 IEnMin= 2 EnMin= -1694.04104909675     IErMin= 2 ErrMin= 2.47D-04
 ErrMax= 5.46D-04  0.00D+00 EMaxC= 1.00D-01 BMatC= 3.78D-05 BMatP= 9.07D-06
 IDIUse=3 WtCom= 3.00D-01 WtEn= 7.00D-01
 Coeff-Com:  0.151D-02 0.672D+00 0.326D+00
 Coeff-En:   0.000D+00 0.738D+00 0.262D+00
 Coeff:      0.452D-03 0.718D+00 0.281D+00
 Gap=     0.055 Goal=   None    Shift=    0.000
 RMSDP=6.38D-06 MaxDP=4.82D-04 DE= 3.60D-05 OVMax= 4.38D-03

 Cycle  11  Pass 1  IDiag  1:
 RMSU=  1.26D-06    CP:  9.99D-01  1.01D+00  4.27D-01
 E= -1694.04105852599     Delta-E=       -0.000045432280 Rises=F Damp=F
 DIIS: error= 7.05D-05 at cycle   4 NSaved=   4.
 NSaved= 4 IEnMin= 4 EnMin= -1694.04105852599     IErMin= 4 ErrMin= 7.05D-05
 ErrMax= 7.05D-05  0.00D+00 EMaxC= 1.00D-01 BMatC= 1.39D-06 BMatP= 9.07D-06
 IDIUse=1 WtCom= 1.00D+00 WtEn= 0.00D+00
 Coeff-Com: -0.351D-02 0.444D+00 0.148D+00 0.412D+00
 Coeff:     -0.351D-02 0.444D+00 0.148D+00 0.412D+00
 Gap=     0.055 Goal=   None    Shift=    0.000
 RMSDP=1.25D-06 MaxDP=9.63D-05 DE=-4.54D-05 OVMax= 6.91D-04

 Cycle  12  Pass 1  IDiag  1:
 RMSU=  4.40D-07    CP:  9.99D-01  1.01D+00  3.28D-01  6.43D-01
 E= -1694.04106007424     Delta-E=       -0.000001548253 Rises=F Damp=F
 DIIS: error= 8.81D-06 at cycle   5 NSaved=   5.
 NSaved= 5 IEnMin= 5 EnMin= -1694.04106007424     IErMin= 5 ErrMin= 8.81D-06
 ErrMax= 8.81D-06  0.00D+00 EMaxC= 1.00D-01 BMatC= 1.26D-08 BMatP= 1.39D-06
 IDIUse=1 WtCom= 1.00D+00 WtEn= 0.00D+00
 Coeff-Com: -0.238D-02 0.280D+00 0.911D-01 0.273D+00 0.358D+00
 Coeff:     -0.238D-02 0.280D+00 0.911D-01 0.273D+00 0.358D+00
 Gap=     0.055 Goal=   None    Shift=    0.000
 RMSDP=1.48D-07 MaxDP=1.17D-05 DE=-1.55D-06 OVMax= 1.02D-04

 Cycle  13  Pass 1  IDiag  1:
 RMSU=  1.30D-07    CP:  9.99D-01  1.01D+00  3.27D-01  6.74D-01  8.70D-01
 E= -1694.04106008754     Delta-E=       -0.000000013298 Rises=F Damp=F
 DIIS: error= 3.18D-06 at cycle   6 NSaved=   6.
 NSaved= 6 IEnMin= 6 EnMin= -1694.04106008754     IErMin= 6 ErrMin= 3.18D-06
 ErrMax= 3.18D-06  0.00D+00 EMaxC= 1.00D-01 BMatC= 1.14D-09 BMatP= 1.26D-08
 IDIUse=1 WtCom= 1.00D+00 WtEn= 0.00D+00
 Coeff-Com: -0.996D-03 0.114D+00 0.362D-01 0.115D+00 0.241D+00 0.495D+00
 Coeff:     -0.996D-03 0.114D+00 0.362D-01 0.115D+00 0.241D+00 0.495D+00
 Gap=     0.055 Goal=   None    Shift=    0.000
 RMSDP=5.87D-08 MaxDP=4.52D-06 DE=-1.33D-08 OVMax= 3.78D-05

 Cycle  14  Pass 1  IDiag  1:
 RMSU=  4.27D-08    CP:  9.99D-01  1.01D+00  3.27D-01  6.65D-01  9.04D-01
                    CP:  7.27D-01
 E= -1694.04106008880     Delta-E=       -0.000000001261 Rises=F Damp=F
 DIIS: error= 1.04D-06 at cycle   7 NSaved=   7.
 NSaved= 7 IEnMin= 7 EnMin= -1694.04106008880     IErMin= 7 ErrMin= 1.04D-06
 ErrMax= 1.04D-06  0.00D+00 EMaxC= 1.00D-01 BMatC= 2.21D-10 BMatP= 1.14D-09
 IDIUse=1 WtCom= 1.00D+00 WtEn= 0.00D+00
 Coeff-Com: -0.419D-03 0.468D-01 0.144D-01 0.484D-01 0.119D+00 0.352D+00
 Coeff-Com:  0.420D+00
 Coeff:     -0.419D-03 0.468D-01 0.144D-01 0.484D-01 0.119D+00 0.352D+00
 Coeff:      0.420D+00
 Gap=     0.055 Goal=   None    Shift=    0.000
 RMSDP=1.76D-08 MaxDP=8.56D-07 DE=-1.26D-09 OVMax= 7.86D-06

 Cycle  15  Pass 1  IDiag  1:
 RMSU=  1.05D-08    CP:  9.99D-01  1.01D+00  3.27D-01  6.68D-01  9.07D-01
                    CP:  7.71D-01  7.15D-01
 E= -1694.04106008906     Delta-E=       -0.000000000256 Rises=F Damp=F
 DIIS: error= 1.80D-07 at cycle   8 NSaved=   8.
 NSaved= 8 IEnMin= 8 EnMin= -1694.04106008906     IErMin= 8 ErrMin= 1.80D-07
 ErrMax= 1.80D-07  0.00D+00 EMaxC= 1.00D-01 BMatC= 1.32D-11 BMatP= 2.21D-10
 IDIUse=1 WtCom= 1.00D+00 WtEn= 0.00D+00
 Coeff-Com:  0.307D-04-0.409D-02-0.180D-02-0.256D-02-0.147D-02 0.880D-01
 Coeff-Com:  0.181D+00 0.741D+00
 Coeff:      0.307D-04-0.409D-02-0.180D-02-0.256D-02-0.147D-02 0.880D-01
 Coeff:      0.181D+00 0.741D+00
 Gap=     0.055 Goal=   None    Shift=    0.000
 RMSDP=6.11D-09 MaxDP=2.31D-07 DE=-2.56D-10 OVMax= 2.17D-06

 SCF Done:  E(RB3LYP) =  -1694.04106009     A.U. after   15 cycles
            NFock= 15  Conv=0.61D-08     -V/T= 2.0042
 KE= 1.686890557726D+03 PE=-1.349564042731D+04 EE= 5.332280420530D+03
 Leave Link  502 at Wed Sep 27 16:39:57 2023, MaxMem=  3221225472 cpu:            4182.1 elap:             115.3
 (Enter /home/center/opt/aarch64/apps/gaussian16/c01/g16/l601.exe)
 Copying SCF densities to generalized density rwf, IOpCl= 0 IROHF=0.

 **********************************************************************

            Population analysis using the SCF Density.

 **********************************************************************

 Orbital symmetries:
       Occupied  (A') (A") (A') (A") (A") (A') (A') (A") (A') (A')
                 (A") (A') (A") (A') (A") (A') (A") (A') (A') (A")
                 (A") (A') (A") (A') (A") (A') (A') (A") (A') (A")
                 (A") (A') (A") (A') (A') (A") (A') (A") (A') (A')
                 (A") (A') (A") (A') (A') (A") (A') (A') (A") (A')
                 (A") (A") (A') (A') (A") (A') (A') (A') (A") (A")
                 (A') (A") (A") (A") (A') (A') (A') (A') (A") (A")
                 (A') (A") (A") (A") (A') (A') (A') (A") (A') (A')
                 (A') (A") (A") (A') (A") (A") (A') (A") (A') (A')
                 (A") (A') (A") (A") (A') (A') (A") (A') (A') (A")
                 (A") (A') (A') (A') (A') (A") (A") (A") (A') (A')
                 (A') (A') (A") (A") (A") (A") (A") (A') (A') (A")
                 (A') (A') (A") (A') (A") (A') (A') (A') (A") (A")
                 (A") (A") (A') (A") (A') (A') (A") (A') (A') (A")
                 (A') (A") (A") (A") (A') (A')
       Virtual   (A') (A') (A") (A") (A") (A") (A') (A') (A") (A')
                 (A') (A') (A") (A') (A") (A') (A') (A") (A') (A')
                 (A") (A") (A') (A") (A') (A") (A') (A") (A") (A')
                 (A") (A') (A") (A') (A') (A") (A") (A') (A') (A')
                 (A") (A') (A") (A') (A') (A') (A") (A") (A") (A")
                 (A') (A') (A') (A') (A') (A") (A') (A") (A') (A')
                 (A") (A") (A") (A") (A') (A") (A') (A") (A') (A")
                 (A') (A') (A") (A') (A') (A") (A") (A') (A') (A")
                 (A") (A') (A') (A") (A') (A') (A") (A') (A') (A")
                 (A') (A") (A") (A") (A') (A') (A') (A") (A") (A')
                 (A") (A') (A') (A') (A") (A") (A") (A') (A") (A")
                 (A') (A') (A') (A") (A') (A") (A') (A') (A") (A")
                 (A') (A') (A") (A') (A") (A') (A') (A') (A") (A")
                 (A') (A') (A") (A') (A') (A") (A') (A") (A") (A')
                 (A') (A") (A') (A") (A') (A") (A') (A") (A") (A')
                 (A") (A') (A") (A") (A') (A") (A') (A') (A') (A")
                 (A') (A") (A') (A") (A') (A') (A") (A') (A") (A')
                 (A") (A') (A") (A') (A') (A") (A") (A") (A') (A')
                 (A") (A') (A") (A') (A") (A") (A') (A") (A") (A')
                 (A') (A") (A') (A') (A") (A') (A") (A") (A') (A')
                 (A') (A") (A') (A") (A") (A') (A') (A") (A") (A')
                 (A') (A") (A") (A') (A') (A') (A") (A") (A') (A")
                 (A') (A') (A") (A") (A') (A") (A') (A") (A') (A')
                 (A") (A') (A') (A') (A") (A") (A") (A') (A') (A")
                 (A") (A') (A') (A") (A') (A") (A') (A") (A") (A')
                 (A') (A") (A") (A') (A") (A') (A") (A') (A") (A')
                 (A') (A") (A') (A") (A') (A") (A") (A') (A") (A')
                 (A") (A') (A') (A") (A') (A") (A') (A") (A') (A")
                 (A") (A') (A') (A") (A') (A") (A') (A") (A') (A")
                 (A') (A") (A") (A') (A") (A') (A') (A") (A') (A")
                 (A') (A") (A') (A') (A") (A") (A') (A") (A") (A')
                 (A') (A") (A') (A") (A') (A') (A") (A') (A") (A")
                 (A') (A') (A") (A') (A") (A') (A") (A") (A') (A")
                 (A') (A") (A') (A") (A') (A') (A") (A') (A") (A")
                 (A') (A') (A') (A") (A') (A") (A') (A") (A') (A')
                 (A") (A') (A") (A') (A') (A') (A") (A') (A") (A")
                 (A') (A') (A") (A') (A") (A') (A") (A") (A') (A")
                 (A') (A") (A") (A") (A') (A") (A') (A") (A') (A")
                 (A') (A") (A') (A') (A') (A") (A') (A') (A") (A')
                 (A") (A') (A') (A") (A") (A') (A") (A') (A") (A')
                 (A') (A") (A') (A") (A") (A') (A') (A") (A") (A')
                 (A') (A') (A") (A') (A') (A") (A") (A') (A") (A')
                 (A') (A") (A') (A") (A") (A') (A') (A") (A') (A")
                 (A') (A') (A") (A") (A") (A") (A') (A') (A") (A")
                 (A') (A") (A") (A') (A') (A') (A") (A') (A") (A")
                 (A') (A') (A") (A') (A") (A') (A") (A") (A') (A')
                 (A") (A') (A") (A') (A") (A') (A') (A") (A") (A')
                 (A") (A") (A') (A') (A") (A') (A') (A") (A') (A")
                 (A') (A") (A') (A") (A') (A") (A") (A") (A') (A")
                 (A") (A') (A") (A') (A") (A") (A') (A") (A') (A')
                 (A") (A') (A') (A") (A') (A') (A") (A") (A') (A')
                 (A") (A") (A') (A") (A') (A") (A') (A') (A") (A')
                 (A') (A") (A') (A") (A") (A') (A") (A') (A") (A")
                 (A') (A") (A') (A") (A") (A') (A") (A') (A') (A')
                 (A') (A") (A") (A") (A') (A') (A") (A") (A') (A")
                 (A') (A") (A") (A') (A") (A') (A') (A") (A') (A')
                 (A") (A') (A') (A") (A") (A") (A') (A') (A') (A")
                 (A') (A") (A") (A') (A') (A") (A') (A') (A") (A')
                 (A") (A') (A") (A') (A") (A") (A') (A") (A') (A")
                 (A') (A') (A") (A") (A') (A") (A') (A') (A") (A')
                 (A") (A') (A') (A') (A") (A") (A') (A') (A") (A')
                 (A') (A") (A') (A") (A') (A") (A') (A") (A') (A')
                 (A') (A") (A") (A') (A") (A') (A") (A") (A') (A")
                 (A") (A') (A') (A") (A') (A") (A') (A") (A') (A')
                 (A") (A") (A") (A') (A') (A') (A") (A') (A') (A")
                 (A') (A') (A") (A') (A") (A") (A') (A") (A') (A')
                 (A") (A') (A") (A') (A") (A") (A') (A') (A") (A')
                 (A") (A') (A") (A') (A") (A') (A") (A") (A') (A')
                 (A') (A") (A') (A") (A') (A") (A") (A') (A") (A")
                 (A') (A') (A') (A") (A') (A') (A") (A") (A") (A')
                 (A") (A') (A") (A') (A') (A") (A') (A") (A') (A")
                 (A") (A") (A') (A") (A') (A') (A') (A') (A") (A")
                 (A') (A") (A') (A') (A") (A') (A") (A') (A") (A')
                 (A") (A') (A') (A") (A') (A") (A') (A") (A") (A')
                 (A') (A") (A') (A") (A') (A') (A') (A") (A') (A')
                 (A") (A") (A') (A") (A') (A") (A') (A') (A") (A")
                 (A") (A') (A") (A") (A') (A') (A") (A") (A') (A")
                 (A') (A') (A") (A") (A') (A') (A') (A') (A") (A")
                 (A") (A') (A") (A') (A") (A') (A') (A") (A') (A")
                 (A') (A") (A") (A") (A') (A') (A") (A') (A') (A')
                 (A") (A") (A') (A') (A") (A') (A") (A') (A") (A')
                 (A') (A") (A') (A")
 The electronic state is 1-A'.
 Alpha  occ. eigenvalues --  -10.20042 -10.20042 -10.20000 -10.19999 -10.19899
 Alpha  occ. eigenvalues --  -10.19898 -10.19861 -10.19861 -10.19106 -10.19086
 Alpha  occ. eigenvalues --  -10.19024 -10.19024 -10.19014 -10.19014 -10.18808
 Alpha  occ. eigenvalues --  -10.18807 -10.18801 -10.18801 -10.18733 -10.18733
 Alpha  occ. eigenvalues --  -10.18685 -10.18685 -10.17531 -10.17531 -10.17503
 Alpha  occ. eigenvalues --  -10.17503 -10.17391 -10.17391 -10.17303 -10.17303
 Alpha  occ. eigenvalues --  -10.16721 -10.16721 -10.16619 -10.16619 -10.16532
 Alpha  occ. eigenvalues --  -10.16532 -10.16520 -10.16462 -10.16462 -10.16185
 Alpha  occ. eigenvalues --  -10.16137 -10.16137 -10.16041 -10.16041  -0.90609
 Alpha  occ. eigenvalues --   -0.89076  -0.87924  -0.86729  -0.86485  -0.84190
 Alpha  occ. eigenvalues --   -0.83571  -0.81069  -0.80982  -0.79655  -0.79425
 Alpha  occ. eigenvalues --   -0.78388  -0.77184  -0.77079  -0.76913  -0.75355
 Alpha  occ. eigenvalues --   -0.74607  -0.73982  -0.72908  -0.71527  -0.70300
 Alpha  occ. eigenvalues --   -0.68485  -0.67785  -0.65987  -0.63782  -0.63416
 Alpha  occ. eigenvalues --   -0.62149  -0.61367  -0.61049  -0.60966  -0.60298
 Alpha  occ. eigenvalues --   -0.59804  -0.58709  -0.58664  -0.57991  -0.56355
 Alpha  occ. eigenvalues --   -0.53753  -0.53590  -0.53287  -0.51430  -0.51288
 Alpha  occ. eigenvalues --   -0.50980  -0.50628  -0.49535  -0.48379  -0.48108
 Alpha  occ. eigenvalues --   -0.47244  -0.47117  -0.46522  -0.46506  -0.46209
 Alpha  occ. eigenvalues --   -0.45978  -0.45245  -0.44933  -0.44140  -0.44136
 Alpha  occ. eigenvalues --   -0.43524  -0.42819  -0.42637  -0.42541  -0.42443
 Alpha  occ. eigenvalues --   -0.41779  -0.41615  -0.41386  -0.41241  -0.40607
 Alpha  occ. eigenvalues --   -0.40302  -0.40046  -0.40046  -0.39291  -0.39151
 Alpha  occ. eigenvalues --   -0.38970  -0.38276  -0.37550  -0.37293  -0.37187
 Alpha  occ. eigenvalues --   -0.36496  -0.35457  -0.35136  -0.35057  -0.34745
 Alpha  occ. eigenvalues --   -0.34046  -0.33693  -0.33366  -0.33222  -0.32714
 Alpha  occ. eigenvalues --   -0.32614  -0.31665  -0.30543  -0.30072  -0.30032
 Alpha  occ. eigenvalues --   -0.29312  -0.28208  -0.27590  -0.27153  -0.25684
 Alpha  occ. eigenvalues --   -0.25193  -0.23696  -0.23079  -0.21159  -0.19078
 Alpha  occ. eigenvalues --   -0.16408
 Alpha virt. eigenvalues --   -0.10883  -0.08399  -0.05643  -0.04028  -0.03137
 Alpha virt. eigenvalues --   -0.01446  -0.01409   0.00871   0.00928   0.01205
 Alpha virt. eigenvalues --    0.01505   0.03354   0.03718   0.03881   0.03948
 Alpha virt. eigenvalues --    0.03951   0.05113   0.05772   0.05779   0.06162
 Alpha virt. eigenvalues --    0.06177   0.07085   0.07133   0.07290   0.07726
 Alpha virt. eigenvalues --    0.08630   0.08697   0.09462   0.09649   0.10259
 Alpha virt. eigenvalues --    0.10536   0.10990   0.11964   0.12441   0.12985
 Alpha virt. eigenvalues --    0.13238   0.13706   0.13948   0.14572   0.15399
 Alpha virt. eigenvalues --    0.15561   0.16754   0.16869   0.17012   0.17622
 Alpha virt. eigenvalues --    0.17871   0.17981   0.18538   0.19378   0.20521
 Alpha virt. eigenvalues --    0.20674   0.21233   0.21923   0.22000   0.23398
 Alpha virt. eigenvalues --    0.24017   0.24368   0.24655   0.24998   0.25570
 Alpha virt. eigenvalues --    0.25625   0.26340   0.26588   0.26713   0.26760
 Alpha virt. eigenvalues --    0.27321   0.27369   0.28498   0.28550   0.28718
 Alpha virt. eigenvalues --    0.29051   0.29497   0.29753   0.29853   0.30104
 Alpha virt. eigenvalues --    0.30200   0.30395   0.31210   0.32039   0.32071
 Alpha virt. eigenvalues --    0.32844   0.33432   0.33842   0.34074   0.34201
 Alpha virt. eigenvalues --    0.34724   0.34958   0.35257   0.35497   0.35677
 Alpha virt. eigenvalues --    0.35811   0.36058   0.36920   0.37140   0.37385
 Alpha virt. eigenvalues --    0.37710   0.37920   0.38594   0.39075   0.39142
 Alpha virt. eigenvalues --    0.39308   0.39335   0.39537   0.39737   0.40099
 Alpha virt. eigenvalues --    0.40422   0.40577   0.40608   0.40778   0.41414
 Alpha virt. eigenvalues --    0.41441   0.42121   0.42228   0.42329   0.42623
 Alpha virt. eigenvalues --    0.42758   0.43204   0.43518   0.43602   0.43978
 Alpha virt. eigenvalues --    0.44128   0.44358   0.44733   0.44965   0.45210
 Alpha virt. eigenvalues --    0.45340   0.45482   0.45570   0.45717   0.45824
 Alpha virt. eigenvalues --    0.46025   0.46283   0.46288   0.46516   0.46659
 Alpha virt. eigenvalues --    0.47337   0.47372   0.47658   0.47990   0.48927
 Alpha virt. eigenvalues --    0.49192   0.50038   0.50179   0.50259   0.50264
 Alpha virt. eigenvalues --    0.50576   0.50824   0.50887   0.51053   0.51506
 Alpha virt. eigenvalues --    0.52400   0.52520   0.52886   0.53403   0.53423
 Alpha virt. eigenvalues --    0.53964   0.54892   0.55427   0.55724   0.56370
 Alpha virt. eigenvalues --    0.56467   0.56864   0.57497   0.57690   0.58099
 Alpha virt. eigenvalues --    0.58438   0.58875   0.58976   0.59566   0.59761
 Alpha virt. eigenvalues --    0.59902   0.60115   0.60535   0.60871   0.61155
 Alpha virt. eigenvalues --    0.61352   0.61778   0.62080   0.62610   0.62753
 Alpha virt. eigenvalues --    0.62817   0.63371   0.63425   0.63840   0.63922
 Alpha virt. eigenvalues --    0.64140   0.64429   0.64536   0.64571   0.64818
 Alpha virt. eigenvalues --    0.65587   0.66092   0.66454   0.66812   0.67020
 Alpha virt. eigenvalues --    0.67495   0.68313   0.69607   0.69723   0.70049
 Alpha virt. eigenvalues --    0.70631   0.70646   0.71168   0.71387   0.71792
 Alpha virt. eigenvalues --    0.71839   0.72429   0.73121   0.73353   0.73383
 Alpha virt. eigenvalues --    0.74005   0.74990   0.75217   0.75384   0.75978
 Alpha virt. eigenvalues --    0.76460   0.76547   0.77190   0.77383   0.78507
 Alpha virt. eigenvalues --    0.78712   0.78891   0.79111   0.79190   0.79709
 Alpha virt. eigenvalues --    0.80027   0.80290   0.80366   0.80747   0.80895
 Alpha virt. eigenvalues --    0.81817   0.82071   0.82388   0.82867   0.82948
 Alpha virt. eigenvalues --    0.83382   0.83609   0.84117   0.85142   0.85560
 Alpha virt. eigenvalues --    0.86223   0.86398   0.86931   0.86957   0.87613
 Alpha virt. eigenvalues --    0.87981   0.88720   0.88775   0.89950   0.90175
 Alpha virt. eigenvalues --    0.90675   0.91282   0.92098   0.92679   0.92815
 Alpha virt. eigenvalues --    0.93817   0.94167   0.94205   0.95007   0.95913
 Alpha virt. eigenvalues --    0.96219   0.96389   0.96816   0.97264   0.97676
 Alpha virt. eigenvalues --    0.97716   0.98508   0.99530   0.99554   0.99728
 Alpha virt. eigenvalues --    1.00168   1.00439   1.01403   1.01586   1.02180
 Alpha virt. eigenvalues --    1.02576   1.02832   1.02957   1.03570   1.03929
 Alpha virt. eigenvalues --    1.04246   1.04396   1.04731   1.05048   1.05277
 Alpha virt. eigenvalues --    1.05783   1.05958   1.06356   1.06817   1.07005
 Alpha virt. eigenvalues --    1.07130   1.07998   1.08562   1.08881   1.09472
 Alpha virt. eigenvalues --    1.09519   1.09793   1.10204   1.10395   1.10764
 Alpha virt. eigenvalues --    1.10958   1.11738   1.11965   1.12165   1.12751
 Alpha virt. eigenvalues --    1.13198   1.13445   1.14106   1.14355   1.14421
 Alpha virt. eigenvalues --    1.14752   1.14806   1.15416   1.15731   1.16300
 Alpha virt. eigenvalues --    1.16572   1.16588   1.17432   1.18517   1.19627
 Alpha virt. eigenvalues --    1.19771   1.20239   1.21979   1.22582   1.23337
 Alpha virt. eigenvalues --    1.24143   1.25478   1.25798   1.27013   1.27606
 Alpha virt. eigenvalues --    1.28009   1.28894   1.28919   1.29451   1.31452
 Alpha virt. eigenvalues --    1.32261   1.32762   1.33181   1.34161   1.35442
 Alpha virt. eigenvalues --    1.35516   1.36116   1.36819   1.37711   1.39003
 Alpha virt. eigenvalues --    1.39509   1.39952   1.40421   1.40609   1.42021
 Alpha virt. eigenvalues --    1.42490   1.42785   1.43525   1.43659   1.44685
 Alpha virt. eigenvalues --    1.44765   1.44791   1.45889   1.46249   1.46986
 Alpha virt. eigenvalues --    1.47073   1.47407   1.48078   1.48104   1.48700
 Alpha virt. eigenvalues --    1.49046   1.49122   1.49415   1.49621   1.49895
 Alpha virt. eigenvalues --    1.50159   1.50254   1.50917   1.51232   1.51293
 Alpha virt. eigenvalues --    1.51696   1.52582   1.52819   1.53216   1.53612
 Alpha virt. eigenvalues --    1.53991   1.54147   1.54391   1.55021   1.55888
 Alpha virt. eigenvalues --    1.55919   1.56392   1.56489   1.56818   1.57495
 Alpha virt. eigenvalues --    1.57903   1.58026   1.58760   1.59223   1.60629
 Alpha virt. eigenvalues --    1.60685   1.61441   1.62255   1.62334   1.63003
 Alpha virt. eigenvalues --    1.63173   1.63250   1.63642   1.64148   1.65622
 Alpha virt. eigenvalues --    1.66106   1.66402   1.66428   1.68684   1.68767
 Alpha virt. eigenvalues --    1.69358   1.70268   1.70804   1.71277   1.71816
 Alpha virt. eigenvalues --    1.72010   1.72650   1.72929   1.73090   1.73623
 Alpha virt. eigenvalues --    1.73738   1.73893   1.74486   1.74685   1.75320
 Alpha virt. eigenvalues --    1.75795   1.76412   1.77111   1.77726   1.78735
 Alpha virt. eigenvalues --    1.78816   1.79479   1.79952   1.80179   1.80475
 Alpha virt. eigenvalues --    1.81344   1.81566   1.82047   1.82208   1.82593
 Alpha virt. eigenvalues --    1.82869   1.83334   1.83992   1.84074   1.84984
 Alpha virt. eigenvalues --    1.85377   1.85427   1.85838   1.86209   1.86645
 Alpha virt. eigenvalues --    1.86681   1.87231   1.87569   1.88507   1.88743
 Alpha virt. eigenvalues --    1.89226   1.89269   1.89302   1.89678   1.89984
 Alpha virt. eigenvalues --    1.90047   1.90497   1.91004   1.91357   1.91602
 Alpha virt. eigenvalues --    1.92479   1.92635   1.92914   1.93509   1.93748
 Alpha virt. eigenvalues --    1.93762   1.93973   1.94315   1.95001   1.95364
 Alpha virt. eigenvalues --    1.95868   1.96554   1.96769   1.96905   1.97313
 Alpha virt. eigenvalues --    1.97666   1.97971   1.98210   1.98558   1.99312
 Alpha virt. eigenvalues --    2.00109   2.00788   2.01284   2.02019   2.02565
 Alpha virt. eigenvalues --    2.03110   2.03112   2.03260   2.03831   2.05036
 Alpha virt. eigenvalues --    2.07233   2.07916   2.08528   2.08627   2.09380
 Alpha virt. eigenvalues --    2.09837   2.11259   2.11913   2.12269   2.13052
 Alpha virt. eigenvalues --    2.13333   2.13510   2.14194   2.14350   2.14575
 Alpha virt. eigenvalues --    2.16248   2.16687   2.18158   2.18661   2.18887
 Alpha virt. eigenvalues --    2.20056   2.20221   2.21924   2.22393   2.23686
 Alpha virt. eigenvalues --    2.23790   2.23983   2.24430   2.24526   2.25130
 Alpha virt. eigenvalues --    2.26144   2.26302   2.27018   2.27521   2.27553
 Alpha virt. eigenvalues --    2.28091   2.29477   2.29592   2.29862   2.30679
 Alpha virt. eigenvalues --    2.30723   2.32215   2.32563   2.34208   2.34747
 Alpha virt. eigenvalues --    2.35907   2.36437   2.37817   2.38353   2.38522
 Alpha virt. eigenvalues --    2.39849   2.40717   2.41117   2.42318   2.42830
 Alpha virt. eigenvalues --    2.43744   2.44450   2.44609   2.44863   2.45831
 Alpha virt. eigenvalues --    2.45882   2.47478   2.47791   2.48228   2.50235
 Alpha virt. eigenvalues --    2.52696   2.53323   2.53829   2.54176   2.54823
 Alpha virt. eigenvalues --    2.55707   2.56511   2.57149   2.57918   2.58334
 Alpha virt. eigenvalues --    2.58565   2.58823   2.59615   2.59634   2.60423
 Alpha virt. eigenvalues --    2.60740   2.60890   2.61199   2.61731   2.62229
 Alpha virt. eigenvalues --    2.62364   2.63007   2.63240   2.63871   2.64298
 Alpha virt. eigenvalues --    2.64535   2.64866   2.64947   2.65665   2.66358
 Alpha virt. eigenvalues --    2.66446   2.67350   2.67463   2.67986   2.68040
 Alpha virt. eigenvalues --    2.68265   2.68335   2.68596   2.68844   2.69328
 Alpha virt. eigenvalues --    2.69500   2.69560   2.69901   2.70774   2.70872
 Alpha virt. eigenvalues --    2.71350   2.71459   2.71869   2.72419   2.72831
 Alpha virt. eigenvalues --    2.73877   2.74038   2.74373   2.74413   2.74535
 Alpha virt. eigenvalues --    2.75123   2.75296   2.75680   2.75850   2.77123
 Alpha virt. eigenvalues --    2.77434   2.77657   2.77974   2.78522   2.78716
 Alpha virt. eigenvalues --    2.79403   2.79926   2.80843   2.80936   2.81332
 Alpha virt. eigenvalues --    2.82482   2.82971   2.83701   2.84332   2.84334
 Alpha virt. eigenvalues --    2.85109   2.85560   2.86433   2.86818   2.87790
 Alpha virt. eigenvalues --    2.88068   2.88733   2.89704   2.89959   2.90446
 Alpha virt. eigenvalues --    2.91125   2.91827   2.92342   2.92805   2.93983
 Alpha virt. eigenvalues --    2.94289   2.95174   2.95368   2.96161   2.96291
 Alpha virt. eigenvalues --    2.98073   2.98289   2.98381   3.00040   3.00834
 Alpha virt. eigenvalues --    3.01185   3.01353   3.02132   3.04493   3.04509
 Alpha virt. eigenvalues --    3.07496   3.07814   3.10219   3.11357   3.11678
 Alpha virt. eigenvalues --    3.13441   3.14182   3.15908   3.16045   3.17307
 Alpha virt. eigenvalues --    3.18294   3.18658   3.19074   3.19580   3.21777
 Alpha virt. eigenvalues --    3.22280   3.24732   3.24867   3.26523   3.31329
 Alpha virt. eigenvalues --    3.31345   3.31852   3.32181   3.32746   3.34289
 Alpha virt. eigenvalues --    3.35593   3.36946   3.37794   3.37892   3.38166
 Alpha virt. eigenvalues --    3.38928   3.39006   3.40621   3.40752   3.41462
 Alpha virt. eigenvalues --    3.42818   3.42930   3.43596   3.45408   3.46198
 Alpha virt. eigenvalues --    3.46892   3.46997   3.47883   3.50795   3.50873
 Alpha virt. eigenvalues --    3.51167   3.52632   3.53074   3.54031   3.54093
 Alpha virt. eigenvalues --    3.57088   3.57943   3.59821   3.59827   3.62368
 Alpha virt. eigenvalues --    3.62876   3.63507   3.64878   3.65029   3.66698
 Alpha virt. eigenvalues --    3.67029   3.67937   3.68740   3.70992   3.71147
 Alpha virt. eigenvalues --    3.72407   3.72505   3.74923   3.78356   4.00439
 Alpha virt. eigenvalues --    4.00444   4.01353   4.01686   4.03244   4.03394
 Alpha virt. eigenvalues --    4.03649   4.03913   4.16237   4.16530   4.17286
 Alpha virt. eigenvalues --    4.20551   4.21287   4.21307   4.21884   4.21995
 Alpha virt. eigenvalues --    4.22248   4.24465   4.25339   4.26982   4.30262
 Alpha virt. eigenvalues --    4.32204   4.38648   4.42794   4.62328   4.66205
 Alpha virt. eigenvalues --    4.78145   4.78958   4.79699   4.81756   4.81934
 Alpha virt. eigenvalues --    4.82357   4.82646   4.84250   4.86449   4.86587
 Alpha virt. eigenvalues --   23.42284  23.48141  23.56470  23.64399  23.70499
 Alpha virt. eigenvalues --   23.77358  23.80136  23.81302  23.81477  23.83175
 Alpha virt. eigenvalues --   23.84168  23.87043  23.87552  23.89270  23.89695
 Alpha virt. eigenvalues --   23.90545  23.91667  23.93255  23.93446  23.96611
 Alpha virt. eigenvalues --   23.97785  23.99192  23.99630  24.01899  24.08863
 Alpha virt. eigenvalues --   24.09398  24.10252  24.11185  24.11646  24.11885
 Alpha virt. eigenvalues --   24.12291  24.13099  24.13577  24.14972  24.15169
 Alpha virt. eigenvalues --   24.15195  24.15868  24.16396  24.17268  24.17298
 Alpha virt. eigenvalues --   24.19696  24.19735  24.22180  24.22253
          Condensed to atoms (all electrons):
 Mulliken charges:
               1
     1  C   -0.089535
     2  C   -0.034267
     3  C   -0.093847
     4  C   -0.042262
     5  C   -0.091729
     6  C   -0.082934
     7  C   -0.054710
     8  C   -0.077621
     9  C    0.009414
    10  C   -0.033504
    11  H    0.085902
    12  H    0.076781
    13  H    0.079029
    14  H    0.086228
    15  H    0.098833
    16  H    0.099900
    17  C   -0.059702
    18  C   -0.077621
    19  C    0.004681
    20  C   -0.033504
    21  H    0.075527
    22  H    0.077779
    23  C   -0.054710
    24  C   -0.089535
    25  C    0.009414
    26  C   -0.034267
    27  H    0.076781
    28  H    0.079029
    29  C   -0.093847
    30  C   -0.091729
    31  C   -0.042262
    32  C   -0.082934
    33  H    0.085902
    34  H    0.099900
    35  H    0.098833
    36  H    0.086228
    37  C   -0.000518
    38  C   -0.153115
    39  C   -0.066174
    40  C   -0.009811
    41  C   -0.084295
    42  C   -0.138487
    43  C   -0.035737
    44  C    0.012586
    45  C    0.029285
    46  C   -0.163444
    47  H    0.076513
    48  H    0.067703
    49  H    0.111792
    50  H    0.121703
    51  H    0.078227
    52  H    0.088552
    53  C   -0.039469
    54  C    0.012586
    55  C    0.024711
    56  C   -0.163444
    57  H    0.066316
    58  H    0.109236
    59  C   -0.035737
    60  C   -0.000518
    61  C    0.029285
    62  C   -0.153115
    63  H    0.067703
    64  H    0.111792
    65  C   -0.066174
    66  C   -0.084295
    67  C   -0.009811
    68  C   -0.138487
    69  H    0.076513
    70  H    0.088552
    71  H    0.078227
    72  H    0.121703
 Sum of Mulliken charges =   0.00000
 Mulliken charges with hydrogens summed into heavy atoms:
               1
     1  C   -0.089535
     2  C   -0.034267
     3  C   -0.007945
     4  C    0.043966
     5  C    0.008171
     6  C    0.015899
     7  C    0.022071
     8  C   -0.077621
     9  C    0.088443
    10  C   -0.033504
    17  C    0.015824
    18  C   -0.077621
    19  C    0.082460
    20  C   -0.033504
    23  C    0.022071
    24  C   -0.089535
    25  C    0.088443
    26  C   -0.034267
    29  C   -0.007945
    30  C    0.008171
    31  C    0.043966
    32  C    0.015899
    37  C   -0.000518
    38  C   -0.153115
    39  C    0.010339
    40  C    0.111892
    41  C    0.004257
    42  C   -0.060259
    43  C    0.031967
    44  C    0.012586
    45  C    0.141077
    46  C   -0.163444
    53  C    0.026847
    54  C    0.012586
    55  C    0.133947
    56  C   -0.163444
    59  C    0.031967
    60  C   -0.000518
    61  C    0.141077
    62  C   -0.153115
    65  C    0.010339
    66  C    0.004257
    67  C    0.111892
    68  C   -0.060259
         Mulliken charges condensed to fragments:
      1     -0.030357
      2      0.030357
 Electronic spatial extent (au):  <R**2>=          24237.0966
 Charge=              0.0000 electrons
 Dipole moment (field-independent basis, Debye):
    X=             -0.6176    Y=             -2.4653    Z=              0.0000  Tot=              2.5415
 Quadrupole moment (field-independent basis, Debye-Ang):
   XX=           -244.5987   YY=           -251.2360   ZZ=           -220.9795
   XY=              0.3050   XZ=              0.0000   YZ=              0.0000
 Traceless Quadrupole moment (field-independent basis, Debye-Ang):
   XX=             -5.6606   YY=            -12.2979   ZZ=             17.9586
   XY=              0.3050   XZ=              0.0000   YZ=              0.0000
 Octapole moment (field-independent basis, Debye-Ang**2):
  XXX=            -30.9710  YYY=            145.3192  ZZZ=              0.0000  XYY=              4.1137
  XXY=            -66.7296  XXZ=              0.0000  XZZ=            -11.6797  YZZ=            -52.0291
  YYZ=              0.0000  XYZ=              0.0000
 Hexadecapole moment (field-independent basis, Debye-Ang**3):
 XXXX=          -1433.6840 YYYY=          -9196.3344 ZZZZ=         -21123.5125 XXXY=           -596.7412
 XXXZ=              0.0000 YYYX=           -604.3672 YYYZ=              0.0000 ZZZX=              0.0000
 ZZZY=              0.0000 XXYY=          -1839.4918 XXZZ=          -4171.7692 YYZZ=          -5396.2473
 XXYZ=              0.0000 YYXZ=              0.0000 ZZXY=           -174.9926
 N-N= 4.782428388964D+03 E-N=-1.349564041048D+04  KE= 1.686890557726D+03
 Symmetry A'   KE= 9.135545265263D+02
 Symmetry A"   KE= 7.733360311997D+02
 No NMR shielding tensors so no spin-rotation constants.
 Leave Link  601 at Wed Sep 27 16:40:01 2023, MaxMem=  3221225472 cpu:              49.9 elap:               1.4
 (Enter /home/center/opt/aarch64/apps/gaussian16/c01/g16/l122.exe)
 CPIOFr:  IOpCl= 0 IRwI=-1 IRwCP=  731 ICalc= -1 LCPTot=     1419224 Len1MO=     3708034 IndFrg=     1419224
 CPIOFr:  IOpCl= 0 IRwI=-1 IRwCP=  731 ICalc=  0 LCPTot=     1419224 Len1MO=     3708034 IndFrg=     5127258
 Counterpoise: doing calculation for fragment   1 using the basis set of the full-system, NewBq=T
 Leave Link  122 at Wed Sep 27 16:40:04 2023, MaxMem=  3221225472 cpu:              10.1 elap:               0.4
 (Enter /home/center/opt/aarch64/apps/gaussian16/c01/g16/l301.exe)
 Basis read from rwf:  (5D, 7F)
 No pseudopotential information found on rwf file.
 There are   528 symmetry adapted cartesian basis functions of A'  symmetry.
 There are   476 symmetry adapted cartesian basis functions of A"  symmetry.
 There are   504 symmetry adapted basis functions of A'  symmetry.
 There are   456 symmetry adapted basis functions of A"  symmetry.
   960 basis functions,  1632 primitive gaussians,  1004 cartesian basis functions
    73 alpha electrons       73 beta electrons
       nuclear repulsion energy      1494.3575060294 Hartrees.
 IExCor=  402 DFT=T Ex+Corr=B3LYP ExCW=0 ScaHFX=  0.200000
 ScaDFX=  0.800000  0.720000  1.000000  0.810000 ScalE2=  1.000000  1.000000
 IRadAn=      5 IRanWt=     -1 IRanGd=            0 ICorTp=0 IEmpDi=131
 NAtoms=   72 NActive=   72 NUniq=   40 SFac= 3.24D+00 NAtFMM=   60 NAOKFM=T Big=F
 Integral buffers will be    131072 words long.
 Raffenetti 2 integral format.
 Two-electron integral symmetry is turned on.
 R6Disp:  Grimme-D3 Dispersion energy=       -0.0303938888 Hartrees.
 Nuclear repulsion after empirical dispersion term =     1494.3271121406 Hartrees.
 No density basis found on file    718.
 Leave Link  301 at Wed Sep 27 16:40:06 2023, MaxMem=  3221225472 cpu:               3.2 elap:               0.1
 (Enter /home/center/opt/aarch64/apps/gaussian16/c01/g16/l302.exe)
 NPDir=0 NMtPBC=     1 NCelOv=     1 NCel=       1 NClECP=     1 NCelD=      1
         NCelK=      1 NCelE2=     1 NClLst=     1 CellRange=     0.0.
 One-electron integrals computed using PRISM.
 One-electron integral symmetry used in STVInt
 NBasis=   960 RedAO= T EigKep=  3.62D-05  NBF=   504   456
 NBsUse=   960 1.00D-06 EigRej= -1.00D+00 NBFU=   504   456
 Precomputing XC quadrature grid using
 IXCGrd= 4 IRadAn=           5 IRanWt=          -1 IRanGd=           0 AccXCQ= 0.00D+00.
 Generated NRdTot=       0 NPtTot=           0 NUsed=           0 NTot=          32
 NSgBfM=   990   990   990   990   990 MxSgAt=    72 MxSgA2=    72.
 Leave Link  302 at Wed Sep 27 16:40:10 2023, MaxMem=  3221225472 cpu:              59.3 elap:               1.6
 (Enter /home/center/opt/aarch64/apps/gaussian16/c01/g16/l303.exe)
 DipDrv:  MaxL=1.
 Leave Link  303 at Wed Sep 27 16:40:13 2023, MaxMem=  3221225472 cpu:              14.6 elap:               0.4
 (Enter /home/center/opt/aarch64/apps/gaussian16/c01/g16/l401.exe)
 ExpMin= 1.03D-01 ExpMax= 4.56D+03 ExpMxC= 6.82D+02 IAcc=3 IRadAn=         5 AccDes= 0.00D+00
 Harris functional with IExCor=  402 and IRadAn=       5 diagonalized for initial guess.
 HarFok:  IExCor=  402 AccDes= 0.00D+00 IRadAn=         5 IDoV= 1 UseB2=F ITyADJ=14
 ICtDFT=  3500011 ScaDFX=  1.000000  1.000000  1.000000  1.000000
 FoFCou: FMM=F IPFlag=           0 FMFlag=      100000 FMFlg1=        2000
         NFxFlg=           0 DoJE=T BraDBF=F KetDBF=T FulRan=T
         wScrn=  0.000000 ICntrl=       500 IOpCl=  0 I1Cent=   200000004 NGrid=           0
         NMat0=    1 NMatS0=      1 NMatT0=    0 NMatD0=    1 NMtDS0=    0 NMtDT0=    0
 Petite list used in FoFCou.
 Harris En= -847.068225913485    
 JPrj=0 DoOrth=F DoCkMO=F.
 Initial guess orbital symmetries:
       Occupied  (A") (A') (A') (A") (A") (A') (A") (A') (A") (A')
                 (A") (A') (A') (A') (A") (A') (A") (A') (A") (A')
                 (A') (A") (A') (A") (A') (A") (A') (A') (A") (A')
                 (A") (A") (A') (A') (A") (A") (A') (A") (A') (A')
                 (A') (A") (A") (A") (A') (A') (A") (A') (A') (A")
                 (A') (A") (A") (A') (A') (A") (A') (A") (A') (A")
                 (A") (A') (A') (A") (A') (A") (A') (A") (A') (A')
                 (A") (A") (A')
       Virtual   (A') (A") (A") (A') (A') (A") (A') (A") (A') (A")
                 (A') (A') (A") (A') (A") (A') (A') (A") (A') (A")
                 (A") (A") (A') (A') (A') (A") (A') (A") (A') (A')
                 (A') (A") (A") (A') (A') (A") (A') (A") (A") (A')
                 (A') (A") (A") (A') (A") (A") (A') (A') (A') (A")
                 (A') (A') (A") (A') (A") (A") (A') (A") (A') (A')
                 (A') (A") (A') (A') (A") (A") (A") (A') (A") (A")
                 (A') (A') (A") (A') (A') (A') (A") (A") (A') (A')
                 (A') (A") (A") (A') (A") (A') (A") (A') (A") (A')
                 (A") (A") (A") (A') (A') (A') (A') (A') (A') (A")
                 (A") (A') (A") (A') (A") (A') (A") (A') (A") (A')
                 (A") (A') (A") (A") (A') (A") (A') (A") (A') (A")
                 (A') (A") (A') (A") (A') (A') (A") (A') (A") (A')
                 (A') (A') (A") (A") (A') (A") (A') (A') (A') (A")
                 (A") (A') (A') (A") (A") (A") (A') (A") (A') (A')
                 (A") (A') (A") (A') (A") (A') (A") (A') (A") (A')
                 (A") (A') (A') (A") (A') (A") (A') (A") (A') (A")
                 (A') (A") (A') (A") (A') (A') (A") (A") (A') (A")
                 (A') (A") (A') (A") (A') (A') (A") (A') (A") (A')
                 (A") (A') (A') (A") (A') (A') (A") (A") (A') (A")
                 (A') (A") (A') (A') (A") (A") (A") (A") (A') (A")
                 (A') (A') (A") (A') (A') (A") (A') (A") (A') (A")
                 (A') (A") (A") (A') (A") (A') (A') (A") (A') (A')
                 (A") (A') (A") (A") (A") (A') (A') (A") (A') (A')
                 (A') (A") (A") (A') (A') (A") (A") (A") (A") (A')
                 (A') (A') (A') (A") (A') (A") (A") (A') (A") (A')
                 (A") (A') (A') (A") (A') (A') (A") (A") (A') (A")
                 (A') (A") (A') (A') (A") (A") (A") (A') (A') (A")
                 (A') (A') (A") (A") (A") (A') (A') (A') (A") (A')
                 (A") (A') (A') (A") (A') (A") (A') (A") (A") (A')
                 (A') (A') (A") (A') (A") (A") (A") (A') (A') (A")
                 (A") (A') (A") (A') (A') (A') (A") (A") (A') (A")
                 (A") (A') (A') (A") (A') (A") (A') (A') (A") (A')
                 (A') (A') (A') (A") (A') (A") (A") (A') (A") (A")
                 (A') (A") (A') (A") (A") (A') (A') (A") (A') (A")
                 (A') (A") (A') (A') (A") (A') (A') (A") (A') (A")
                 (A') (A") (A') (A') (A') (A") (A") (A') (A") (A')
                 (A") (A") (A") (A') (A") (A') (A") (A') (A") (A')
                 (A") (A') (A") (A') (A") (A') (A') (A") (A') (A")
                 (A') (A") (A") (A') (A') (A') (A") (A") (A') (A')
                 (A") (A') (A") (A") (A') (A") (A") (A') (A') (A")
                 (A") (A') (A') (A') (A") (A') (A") (A') (A") (A')
                 (A") (A') (A") (A") (A") (A") (A') (A") (A') (A')
                 (A') (A') (A") (A') (A") (A') (A") (A') (A") (A')
                 (A') (A") (A') (A") (A') (A") (A') (A") (A') (A')
                 (A") (A") (A') (A") (A") (A") (A') (A') (A") (A')
                 (A') (A") (A') (A") (A") (A') (A') (A") (A") (A')
                 (A') (A") (A') (A") (A") (A") (A') (A') (A") (A")
                 (A') (A') (A") (A') (A') (A') (A") (A") (A") (A")
                 (A') (A') (A') (A") (A') (A') (A") (A") (A') (A")
                 (A') (A") (A') (A") (A') (A") (A") (A') (A') (A")
                 (A') (A") (A') (A") (A') (A') (A") (A') (A") (A")
                 (A") (A') (A') (A') (A") (A') (A") (A') (A") (A')
                 (A') (A") (A') (A") (A") (A') (A") (A') (A") (A')
                 (A') (A") (A') (A') (A") (A') (A") (A') (A") (A')
                 (A") (A') (A") (A') (A") (A") (A') (A') (A") (A')
                 (A") (A') (A") (A') (A") (A") (A') (A') (A") (A')
                 (A') (A') (A") (A') (A") (A') (A") (A') (A") (A")
                 (A') (A") (A") (A') (A') (A") (A") (A') (A') (A')
                 (A") (A') (A') (A') (A") (A") (A") (A') (A") (A')
                 (A") (A') (A") (A") (A') (A") (A') (A') (A") (A')
                 (A") (A') (A") (A') (A') (A") (A') (A") (A') (A")
                 (A') (A') (A") (A") (A') (A") (A') (A") (A') (A")
                 (A") (A") (A') (A") (A') (A") (A') (A') (A') (A')
                 (A") (A") (A') (A") (A') (A") (A') (A") (A") (A')
                 (A") (A') (A') (A") (A") (A') (A") (A') (A") (A")
                 (A') (A") (A') (A') (A") (A") (A') (A') (A") (A')
                 (A') (A") (A') (A") (A') (A") (A') (A") (A') (A")
                 (A') (A') (A') (A") (A') (A") (A') (A') (A") (A")
                 (A') (A") (A') (A") (A') (A") (A") (A') (A') (A')
[...]
       Virtual   (A') (A") (A") (A') (A') (A") (A') (A') (A') (A")
                 (A") (A') (A") (A') (A") (A') (A") (A") (A') (A")
                 (A') (A') (A") (A') (A") (A') (A') (A') (A') (A")
                 (A") (A") (A") (A') (A') (A") (A') (A") (A') (A")
                 (A') (A') (A') (A") (A') (A") (A") (A') (A') (A")
                 (A") (A') (A') (A") (A') (A") (A") (A") (A') (A")
                 (A') (A') (A') (A') (A') (A") (A') (A') (A") (A")
                 (A") (A') (A') (A') (A") (A') (A") (A") (A") (A')
                 (A') (A") (A') (A") (A") (A') (A") (A') (A') (A')
                 (A') (A') (A") (A") (A") (A") (A') (A") (A') (A")
                 (A') (A') (A') (A") (A") (A') (A') (A") (A') (A")
                 (A') (A") (A") (A") (A') (A') (A") (A') (A') (A")
                 (A') (A") (A") (A') (A') (A") (A') (A") (A') (A")
                 (A") (A') (A') (A') (A') (A") (A") (A") (A') (A")
                 (A') (A") (A') (A") (A') (A') (A") (A") (A') (A")
                 (A') (A") (A') (A") (A') (A') (A") (A') (A") (A")
                 (A') (A") (A') (A') (A") (A") (A') (A") (A') (A")
                 (A') (A') (A") (A') (A') (A") (A") (A') (A') (A')
                 (A") (A') (A") (A") (A") (A") (A') (A") (A') (A')
                 (A") (A') (A") (A') (A') (A') (A") (A') (A") (A')
                 (A") (A") (A') (A') (A") (A") (A') (A') (A") (A')
                 (A') (A') (A') (A") (A") (A") (A") (A') (A') (A")
                 (A') (A") (A") (A') (A") (A') (A") (A') (A") (A')
                 (A") (A') (A') (A") (A') (A") (A") (A') (A') (A")
                 (A") (A') (A') (A") (A") (A') (A") (A") (A") (A')
                 (A') (A") (A') (A') (A") (A') (A') (A") (A') (A")
                 (A") (A') (A") (A') (A') (A") (A") (A") (A') (A')
                 (A") (A') (A') (A") (A") (A") (A') (A") (A') (A')
                 (A") (A') (A") (A') (A") (A') (A') (A') (A") (A')
                 (A") (A") (A') (A') (A") (A") (A') (A") (A') (A")
                 (A') (A') (A") (A") (A') (A') (A") (A') (A') (A')
                 (A") (A") (A') (A") (A') (A") (A') (A") (A') (A')
                 (A') (A") (A") (A") (A') (A") (A') (A') (A') (A")
                 (A") (A') (A") (A') (A') (A") (A') (A") (A") (A')
                 (A') (A") (A') (A") (A") (A') (A') (A") (A') (A")
                 (A') (A") (A') (A") (A') (A") (A") (A') (A') (A")
                 (A') (A") (A') (A') (A") (A") (A') (A") (A') (A')
                 (A") (A') (A") (A') (A') (A") (A') (A") (A') (A")
                 (A") (A') (A") (A') (A") (A') (A") (A') (A') (A")
                 (A") (A') (A") (A') (A') (A") (A") (A') (A') (A")
                 (A') (A") (A') (A") (A') (A') (A")
 The electronic state is 1-A'.
 Alpha  occ. eigenvalues --  -10.18931 -10.18930 -10.18896 -10.18895 -10.18848
 Alpha  occ. eigenvalues --  -10.18848 -10.18813 -10.18813 -10.17956 -10.17955
 Alpha  occ. eigenvalues --  -10.17920 -10.17920 -10.17919 -10.17919 -10.17875
 Alpha  occ. eigenvalues --  -10.17875 -10.17863 -10.17863 -10.17808 -10.17808
 Alpha  occ. eigenvalues --  -10.17781 -10.17781  -0.89340  -0.87865  -0.85549
 Alpha  occ. eigenvalues --   -0.82415  -0.79820  -0.78521  -0.78314  -0.75991
 Alpha  occ. eigenvalues --   -0.74255  -0.72901  -0.69196  -0.67344  -0.62728
 Alpha  occ. eigenvalues --   -0.62370  -0.61108  -0.59964  -0.59301  -0.57689
 Alpha  occ. eigenvalues --   -0.52709  -0.52573  -0.52293  -0.49654  -0.48513
 Alpha  occ. eigenvalues --   -0.47160  -0.46110  -0.45590  -0.45476  -0.43928
 Alpha  occ. eigenvalues --   -0.43182  -0.42578  -0.41808  -0.41572  -0.41386
 Alpha  occ. eigenvalues --   -0.40692  -0.40405  -0.39579  -0.38193  -0.36732
 Alpha  occ. eigenvalues --   -0.36341  -0.35550  -0.34094  -0.33809  -0.33058
 Alpha  occ. eigenvalues --   -0.32930  -0.31612  -0.29665  -0.28406  -0.26623
 Alpha  occ. eigenvalues --   -0.24364  -0.22582  -0.17855
 Alpha virt. eigenvalues --   -0.09755  -0.04464  -0.02747  -0.00147   0.02073
 Alpha virt. eigenvalues --    0.02370   0.03189   0.04746   0.04859   0.04871
 Alpha virt. eigenvalues --    0.06161   0.06575   0.07968   0.08162   0.08303
 Alpha virt. eigenvalues --    0.09607   0.10049   0.11524   0.11533   0.13796
 Alpha virt. eigenvalues --    0.14111   0.14670   0.18092   0.18194   0.18832
 Alpha virt. eigenvalues --    0.19391   0.22815   0.23002   0.24379   0.24942
 Alpha virt. eigenvalues --    0.25581   0.27528   0.27575   0.28012   0.28228
 Alpha virt. eigenvalues --    0.28947   0.29389   0.30158   0.30759   0.31175
 Alpha virt. eigenvalues --    0.32897   0.34528   0.36420   0.36484   0.37134
 Alpha virt. eigenvalues --    0.37503   0.37629   0.37651   0.38116   0.38643
 Alpha virt. eigenvalues --    0.39094   0.39439   0.39739   0.40236   0.40435
 Alpha virt. eigenvalues --    0.41918   0.41926   0.41940   0.42289   0.42318
 Alpha virt. eigenvalues --    0.42643   0.43748   0.44233   0.44835   0.45295
 Alpha virt. eigenvalues --    0.45683   0.45924   0.45953   0.46379   0.47165
 Alpha virt. eigenvalues --    0.47805   0.47809   0.47978   0.48073   0.48231
 Alpha virt. eigenvalues --    0.48568   0.49414   0.49572   0.51377   0.51846
 Alpha virt. eigenvalues --    0.52370   0.53118   0.53671   0.55998   0.57923
 Alpha virt. eigenvalues --    0.57955   0.59048   0.59201   0.60433   0.60585
 Alpha virt. eigenvalues --    0.60693   0.61101   0.61690   0.62105   0.62173
 Alpha virt. eigenvalues --    0.63432   0.63481   0.64458   0.64535   0.65533
 Alpha virt. eigenvalues --    0.66693   0.66910   0.67680   0.67724   0.70658
 Alpha virt. eigenvalues --    0.71305   0.71405   0.71494   0.72803   0.73989
 Alpha virt. eigenvalues --    0.75405   0.75894   0.76289   0.77801   0.77809
 Alpha virt. eigenvalues --    0.78943   0.79160   0.79723   0.81162   0.81509
 Alpha virt. eigenvalues --    0.82881   0.83001   0.84383   0.84585   0.84713
 Alpha virt. eigenvalues --    0.88087   0.89711   0.89765   0.91536   0.92083
 Alpha virt. eigenvalues --    0.92578   0.93749   0.95806   0.96107   0.96442
 Alpha virt. eigenvalues --    0.96590   0.96905   0.98547   1.00356   1.01118
 Alpha virt. eigenvalues --    1.02686   1.03027   1.03354   1.04405   1.05244
 Alpha virt. eigenvalues --    1.05439   1.05525   1.05950   1.07395   1.07547
 Alpha virt. eigenvalues --    1.07686   1.08438   1.10005   1.10036   1.12070
 Alpha virt. eigenvalues --    1.13223   1.13544   1.13650   1.14526   1.15341
 Alpha virt. eigenvalues --    1.17432   1.18332   1.19657   1.20432   1.23014
 Alpha virt. eigenvalues --    1.23618   1.27884   1.28234   1.30579   1.32076
 Alpha virt. eigenvalues --    1.32743   1.34942   1.37641   1.39236   1.39896
 Alpha virt. eigenvalues --    1.39942   1.40725   1.42751   1.43476   1.43554
 Alpha virt. eigenvalues --    1.45057   1.46086   1.47119   1.47538   1.48841
 Alpha virt. eigenvalues --    1.49280   1.49417   1.50258   1.50674   1.52268
 Alpha virt. eigenvalues --    1.52650   1.53402   1.54331   1.54372   1.54781
 Alpha virt. eigenvalues --    1.54807   1.57107   1.57715   1.58569   1.59882
 Alpha virt. eigenvalues --    1.60106   1.62692   1.63242   1.64856   1.66641
 Alpha virt. eigenvalues --    1.69292   1.69605   1.69709   1.70649   1.71804
 Alpha virt. eigenvalues --    1.72459   1.72619   1.73075   1.73096   1.73680
 Alpha virt. eigenvalues --    1.77494   1.78519   1.79157   1.79419   1.80511
 Alpha virt. eigenvalues --    1.81616   1.81887   1.82058   1.83581   1.84039
 Alpha virt. eigenvalues --    1.85487   1.87392   1.87456   1.87577   1.87728
 Alpha virt. eigenvalues --    1.88131   1.88613   1.90743   1.91387   1.92190
 Alpha virt. eigenvalues --    1.92193   1.92572   1.92670   1.93517   1.93938
 Alpha virt. eigenvalues --    1.94544   1.95483   1.97262   1.99429   2.00088
 Alpha virt. eigenvalues --    2.00602   2.01362   2.03019   2.05757   2.08293
 Alpha virt. eigenvalues --    2.09111   2.09256   2.09792   2.12192   2.14098
 Alpha virt. eigenvalues --    2.15528   2.15584   2.17200   2.19751   2.20833
 Alpha virt. eigenvalues --    2.21576   2.22525   2.23381   2.24503   2.26441
 Alpha virt. eigenvalues --    2.26972   2.27242   2.27719   2.28046   2.29391
 Alpha virt. eigenvalues --    2.33301   2.35725   2.39155   2.39384   2.40817
 Alpha virt. eigenvalues --    2.42649   2.43076   2.45776   2.45994   2.46870
 Alpha virt. eigenvalues --    2.51623   2.51954   2.53354   2.53485   2.55138
 Alpha virt. eigenvalues --    2.56159   2.58701   2.58838   2.59764   2.59776
 Alpha virt. eigenvalues --    2.60682   2.61147   2.61719   2.62222   2.63349
 Alpha virt. eigenvalues --    2.63999   2.64478   2.66054   2.66794   2.67121
 Alpha virt. eigenvalues --    2.67374   2.68356   2.68872   2.68876   2.69372
 Alpha virt. eigenvalues --    2.69557   2.69907   2.70083   2.70281   2.73482
 Alpha virt. eigenvalues --    2.74771   2.74836   2.76066   2.77101   2.77577
 Alpha virt. eigenvalues --    2.78232   2.78455   2.78850   2.80822   2.82359
 Alpha virt. eigenvalues --    2.85535   2.85993   2.86737   2.87294   2.90966
 Alpha virt. eigenvalues --    2.91783   2.92195   2.93676   2.95232   2.95887
 Alpha virt. eigenvalues --    2.99270   2.99858   3.03165   3.05604   3.06852
 Alpha virt. eigenvalues --    3.07371   3.15988   3.16029   3.16647   3.19843
 Alpha virt. eigenvalues --    3.20017   3.23601   3.29134   3.29680   3.31610
 Alpha virt. eigenvalues --    3.35095   3.35458   3.35677   3.35858   3.38023
 Alpha virt. eigenvalues --    3.39887   3.41413   3.44960   3.45362   3.47993
 Alpha virt. eigenvalues --    3.48278   3.50401   3.53073   3.57439   3.58649
 Alpha virt. eigenvalues --    3.61466   3.62620   3.63208   3.63698   3.65910
 Alpha virt. eigenvalues --    3.67534   3.67678   4.00384   4.00442   4.01859
 Alpha virt. eigenvalues --    4.02182   4.16133   4.16678   4.17360   4.21240
 Alpha virt. eigenvalues --    4.22396   4.22517   4.25488   4.38492   4.62290
 Alpha virt. eigenvalues --    4.79179   4.79740   4.80562   4.82562   4.83014
 Alpha virt. eigenvalues --   23.39176  23.54541  23.69085  23.77378  23.80419
 Alpha virt. eigenvalues --   23.81537  23.86099  23.89067  23.89154  23.92210
 Alpha virt. eigenvalues --   23.97563  23.98365  24.09049  24.09932  24.10529
 Alpha virt. eigenvalues --   24.12220  24.13779  24.14375  24.15775  24.15810
 Alpha virt. eigenvalues --   24.20452  24.20497
          Condensed to atoms (all electrons):
 Mulliken charges:
               1
     1  C    0.000000
     2  C    0.000000
     3  C    0.000000
     4  C    0.000000
     5  C    0.000000
     6  C    0.000000
     7  C    0.000000
     8  C    0.000000
     9  C    0.000000
    10  C    0.000000
    11  H    0.000000
    12  H    0.000000
    13  H    0.000000
    14  H    0.000000
    15  H    0.000000
    16  H    0.000000
    17  C    0.000000
    18  C    0.000000
    19  C    0.000000
    20  C    0.000000
    21  H    0.000000
    22  H    0.000000
    23  C    0.000000
    24  C    0.000000
    25  C    0.000000
    26  C    0.000000
    27  H    0.000000
    28  H    0.000000
    29  C    0.000000
    30  C    0.000000
    31  C    0.000000
    32  C    0.000000
    33  H    0.000000
    34  H    0.000000
    35  H    0.000000
    36  H    0.000000
    37  C   -0.059168
    38  C   -0.059168
    39  C   -0.055977
    40  C   -0.055977
    41  C   -0.092198
    42  C   -0.092198
    43  C   -0.016525
    44  C   -0.054498
    45  C   -0.016525
    46  C   -0.054498
    47  H    0.082122
    48  H    0.074853
    49  H    0.074853
    50  H    0.082122
    51  H    0.094847
    52  H    0.094847
    53  C   -0.020341
    54  C   -0.054498
    55  C   -0.020341
    56  C   -0.054498
    57  H    0.073428
    58  H    0.073428
    59  C   -0.016525
    60  C   -0.059168
    61  C   -0.016525
    62  C   -0.059168
    63  H    0.074853
    64  H    0.074853
    65  C   -0.055977
    66  C   -0.092198
    67  C   -0.055977
    68  C   -0.092198
    69  H    0.082122
    70  H    0.094847
    71  H    0.094847
    72  H    0.082122
 Sum of Mulliken charges =   0.00000
 Mulliken charges with hydrogens summed into heavy atoms:
               1
     1  C    0.000000
     2  C    0.000000
     3  C    0.000000
     4  C    0.000000
     5  C    0.000000
     6  C    0.000000
     7  C    0.000000
     8  C    0.000000
     9  C    0.000000
    10  C    0.000000
    17  C    0.000000
    18  C    0.000000
    19  C    0.000000
    20  C    0.000000
    23  C    0.000000
    24  C    0.000000
    25  C    0.000000
    26  C    0.000000
    29  C    0.000000
    30  C    0.000000
    31  C    0.000000
    32  C    0.000000
    37  C   -0.059168
    38  C   -0.059168
    39  C    0.026144
    40  C    0.026144
    41  C    0.002649
    42  C    0.002649
    43  C    0.058328
    44  C   -0.054498
    45  C    0.058328
    46  C   -0.054498
    53  C    0.053087
    54  C   -0.054498
    55  C    0.053087
    56  C   -0.054498
    59  C    0.058328
    60  C   -0.059168
    61  C    0.058328
    62  C   -0.059168
    65  C    0.026144
    66  C    0.002649
    67  C    0.026144
    68  C    0.002649
         Mulliken charges condensed to fragments:
      1      0.000000
      2      0.000000
 Electronic spatial extent (au):  <R**2>=          13241.0873
 Charge=              0.0000 electrons
 Dipole moment (field-independent basis, Debye):
    X=              0.0000    Y=              0.0000    Z=              0.0000  Tot=              0.0000
 Quadrupole moment (field-independent basis, Debye-Ang):
   XX=           -136.3921   YY=           -110.7480   ZZ=           -109.0115
   XY=              0.0000   XZ=              0.0000   YZ=              0.0000
 Traceless Quadrupole moment (field-independent basis, Debye-Ang):
   XX=            -17.6749   YY=              7.9692   ZZ=              9.7057
   XY=              0.0000   XZ=              0.0000   YZ=              0.0000
 Octapole moment (field-independent basis, Debye-Ang**2):
  XXX=            795.6610  YYY=            646.0631  ZZZ=              0.0000  XYY=            215.3544
  XXY=            265.2203  XXZ=              0.0000  XZZ=            211.9776  YZZ=            211.9776
  YYZ=              0.0000  XYZ=              0.0000
 Hexadecapole moment (field-independent basis, Debye-Ang**3):
 XXXX=          -3248.7987 YYYY=          -3629.3128 ZZZZ=         -10461.4324 XXXY=          -1547.1974
 XXXZ=              0.0000 YYYX=          -1256.2979 YYYZ=              0.0000 ZZZX=              0.0000
 ZZZY=              0.0000 XXYY=          -1190.9138 XXZZ=          -2620.1316 YYZZ=          -2381.4140
 XXYZ=              0.0000 YYXZ=              0.0000 ZZXY=           -412.1996
 N-N= 1.494327112237D+03 E-N=-4.953709176031D+03  KE= 8.433374905124D+02
 Symmetry A'   KE= 4.567052305464D+02
 Symmetry A"   KE= 3.866322599660D+02
 No NMR shielding tensors so no spin-rotation constants.
 Leave Link  601 at Wed Sep 27 16:57:53 2023, MaxMem=  3221225472 cpu:              18.6 elap:               0.5
 (Enter /home/center/opt/aarch64/apps/gaussian16/c01/g16/l122.exe)
 CPIOFr:  IOpCl= 0 IRwI=-1 IRwCP=  731 ICalc=  4 LCPTot=     1419224 Len1MO=     3708034 IndFrg=    19959394
 Restoring MOs from calculation   1 to rwf.
 CPIOFr:  IOpCl= 0 IRwI=-2 IRwCP=  731 ICalc=  0 LCPTot=     1419224 Len1MO=     3708034 IndFrg=     5127258
 Counterpoise corrected energy =   -1694.051175511742
                   BSSE energy =       0.001888214203
              sum of fragments =   -1694.039683044259
           complexation energy =      -8.40 kcal/mole (raw)
           complexation energy =      -7.21 kcal/mole (corrected)
 Leave Link  122 at Wed Sep 27 16:57:56 2023, MaxMem=  3221225472 cpu:               8.3 elap:               0.3
 (Enter /home/center/opt/aarch64/apps/gaussian16/c01/g16/l9999.exe)

 Test job not archived.
 1\1\GINC-FX0456\SP\RB3LYP\6-311G(d,p)\C44H28\Z40145W\27-Sep-2023\0\\#P
  TEST b3lyp/6-311G** EmpiricalDispersion=GD3 counterpoise=2\\pentacene
 _A1=0_A2=0_A3=45_p2\\0,1\C,0,-0.5039478476,0.5239478476,-3.6612755801\
 C,0,0.5239480325,-0.5039480325,-3.6612755629\C,0,-0.9861248463,1.00612
 48463,-4.9235927708\C,0,1.0061250889,-0.9861250889,-4.9235926697\C,0,-
 0.4963213507,0.5163213507,-6.096356521\C,0,0.5163216812,-0.4963216812,
 -6.0963564796\C,0,-0.9844684311,1.0044684311,-2.4533174875\C,0,-0.5044
 88426,0.524488426,-1.2140288145\C,0,1.0044685359,-0.9844685359,-2.4533
 173917\C,0,0.5244885437,-0.5044885437,-1.2140288362\H,0,-1.7533559667,
 1.7733559667,-4.9232600459\H,0,-1.7521866813,1.7721866813,-2.453928581
 5\H,0,1.7721859268,-1.7521859268,-2.4539284818\H,0,1.7733558421,-1.753
 3558421,-4.9232597785\H,0,0.8905568758,-0.8705568758,-7.0425276922\H,0
 ,-0.8705565046,0.8905565046,-7.042527775\C,0,-0.9848184961,1.004818496
 1,0.0099998782\C,0,-0.5044883957,0.5244883957,1.2340295553\C,0,1.00481
 85643,-0.9848185643,0.0099998696\C,0,0.5244885146,-0.5044885146,1.2340
 295261\H,0,-1.7524699697,1.7724699697,0.0099999205\H,0,1.772468921,-1.
 752468921,0.0099999641\C,0,-0.9844683048,1.0044683048,2.4733171385\C,0
 ,-0.5039477114,0.5239477114,3.681276331\C,0,1.0044684211,-0.9844684211
 ,2.4733170835\C,0,0.5239479079,-0.5039479079,3.6812763217\H,0,-1.75218
 65527,1.7721865527,2.4739285326\H,0,1.7721858092,-1.7521858092,2.47392
 83796\C,0,-0.9861245177,1.0061245177,4.9435920588\C,0,-0.4963209372,0.
 5163209372,6.116356633\C,0,1.0061247659,-0.9861247659,4.9435919377\C,0
 ,0.5163212637,-0.4963212637,6.1163566075\H,0,-1.7533556504,1.773355650
 4,4.9432601504\H,0,-0.8705567426,0.8905567426,7.0625274368\H,0,0.89055
 70967,-0.8705570967,7.0625272142\H,0,1.7733555414,-1.7533555414,4.9432
 599297\C,0,4.9960521524,0.5239478476,-3.6612755801\C,0,6.0239480325,-0
 .5039480325,-3.6612755629\C,0,4.5138751537,1.0061248463,-4.9235927708\
 C,0,6.5061250889,-0.9861250889,-4.9235926697\C,0,5.0036786493,0.516321
 3507,-6.096356521\C,0,6.0163216812,-0.4963216812,-6.0963564796\C,0,4.5
 155315689,1.0044684311,-2.4533174875\C,0,4.995511574,0.524488426,-1.21
 40288145\C,0,6.5044685359,-0.9844685359,-2.4533173917\C,0,6.0244885437
 ,-0.5044885437,-1.2140288362\H,0,3.7466440333,1.7733559667,-4.92326004
 59\H,0,3.7478133187,1.7721866813,-2.4539285815\H,0,7.2721859268,-1.752
 1859268,-2.4539284818\H,0,7.2733558421,-1.7533558421,-4.9232597785\H,0
 ,6.3905568758,-0.8705568758,-7.0425276922\H,0,4.6294434954,0.890556504
 6,-7.042527775\C,0,4.5151815039,1.0048184961,0.0099998782\C,0,4.995511
 6043,0.5244883957,1.2340295553\C,0,6.5048185643,-0.9848185643,0.009999
 8696\C,0,6.0244885146,-0.5044885146,1.2340295261\H,0,3.7475300303,1.77
 24699697,0.0099999205\H,0,7.272468921,-1.752468921,0.0099999641\C,0,4.
 5155316952,1.0044683048,2.4733171385\C,0,4.9960522886,0.5239477114,3.6
 81276331\C,0,6.5044684211,-0.9844684211,2.4733170835\C,0,6.0239479079,
 -0.5039479079,3.6812763217\H,0,3.7478134473,1.7721865527,2.4739285326\
 H,0,7.2721858092,-1.7521858092,2.4739283796\C,0,4.5138754823,1.0061245
 177,4.9435920588\C,0,5.0036790628,0.5163209372,6.116356633\C,0,6.50612
 47659,-0.9861247659,4.9435919377\C,0,6.0163212637,-0.4963212637,6.1163
 566075\H,0,3.7466443496,1.7733556504,4.9432601504\H,0,4.6294432574,0.8
 905567426,7.0625274368\H,0,6.3905570967,-0.8705570967,7.0625272142\H,0
 ,7.2733555414,-1.7533555414,4.9432599297\\Version=Fujitsu-Arm-G16RevC.
 01\State=1-A'\HF=-847.0198415\RMSD=3.181e-09\Dipole=-0.0000009,0.00000
 11,0.\Quadrupole=-8.6579023,-5.5609791,14.2188813,-17.615403,0.,0.\PG=
 CS [SG(C4H4),X(C40H24)]\\@


 KNOWING HOW CONTENTED, FREE, AND JOYFUL IS LIFE IN
 THE REALMS OF SCIENCE, ONE FERVENTLY WISHES THAT
 MANY WOULD ENTER HER PORTALS.
   --  DMITRI IVANOVICH MENDELEEV
 "FIRST PRINCIPLES OF CHEMISTRY", LONGMANS, GREEN,
 AND CO.  LONDON, 1891
 Job cpu time:       0 days  3 hours 23 minutes 52.3 seconds.
 Elapsed time:       0 days  0 hours  5 minutes 19.4 seconds.
 File lengths (MBytes):  RWF=    718 Int=      0 D2E=      0 Chk=    208 Scr=      1
 Normal termination of Gaussian 16 at Wed Sep 27 16:58:02 2023.
