 Entering Gaussian System, Link 0=g16
 Initial command:
 /home/center/opt/aarch64/apps/gaussian16/c01/g16/l1.exe "/data/tmp/Gtmp/1006979/Gau-49.inp" -scrdir="/data/tmp/Gtmp/1006979/"
 Entering Link 1 = /home/center/opt/aarch64/apps/gaussian16/c01/g16/l1.exe PID=        50.
  
 Copyright (c) 1988-2019, Gaussian, Inc.  All Rights Reserved.
  
 This is part of the Gaussian(R) 16 program.  It is based on
 the Gaussian(R) 09 system (copyright 2009, Gaussian, Inc.),
 the Gaussian(R) 03 system (copyright 2003, Gaussian, Inc.),
 the Gaussian(R) 98 system (copyright 1998, Gaussian, Inc.),
 the Gaussian(R) 94 system (copyright 1995, Gaussian, Inc.),
 the Gaussian 92(TM) system (copyright 1992, Gaussian, Inc.),
 the Gaussian 90(TM) system (copyright 1990, Gaussian, Inc.),
 the Gaussian 88(TM) system (copyright 1988, Gaussian, Inc.),
 the Gaussian 86(TM) system (copyright 1986, Carnegie Mellon
 University), and the Gaussian 82(TM) system (copyright 1983,
 Carnegie Mellon University). Gaussian is a federally registered
 trademark of Gaussian, Inc.
  
 This software contains proprietary and confidential information,
 including trade secrets, belonging to Gaussian, Inc.
  
 This software is provided under written license and may be
 used, copied, transmitted, or stored only in accord with that
 written license.
  
 The following legend is applicable only to US Government
 contracts under FAR:
  
                    RESTRICTED RIGHTS LEGEND
  
 Use, reproduction and disclosure by the US Government is
 subject to restrictions as set forth in subparagraphs (a)
 and (c) of the Commercial Computer Software - Restricted
 Rights clause in FAR 52.227-19.
  
 Gaussian, Inc.
 340 Quinnipiac St., Bldg. 40, Wallingford CT 06492
  
  
 ---------------------------------------------------------------
 Warning -- This program may not be used in any manner that
 competes with the business of Gaussian, Inc. or will provide
 assistance to any competitor of Gaussian, Inc.  The licensee
 of this program is prohibited from giving any competitor of
 Gaussian, Inc. access to this program.  By using this program,
 the user acknowledges that Gaussian, Inc. is engaged in the
 business of creating and licensing software in the field of
 computational chemistry and represents and warrants to the
 licensee that it is not a competitor of Gaussian, Inc. and that
 it will not use this program in any manner prohibited above.
 ---------------------------------------------------------------
  

 Cite this work as:
 Gaussian 16, Revision C.01,
 M. J. Frisch, G. W. Trucks, H. B. Schlegel, G. E. Scuseria, 
 M. A. Robb, J. R. Cheeseman, G. Scalmani, V. Barone, 
 G. A. Petersson, H. Nakatsuji, X. Li, M. Caricato, A. V. Marenich, 
 J. Bloino, B. G. Janesko, R. Gomperts, B. Mennucci, H. P. Hratchian, 
 J. V. Ortiz, A. F. Izmaylov, J. L. Sonnenberg, D. Williams-Young, 
 F. Ding, F. Lipparini, F. Egidi, J. Goings, B. Peng, A. Petrone, 
 T. Henderson, D. Ranasinghe, V. G. Zakrzewski, J. Gao, N. Rega, 
 G. Zheng, W. Liang, M. Hada, M. Ehara, K. Toyota, R. Fukuda, 
 J. Hasegawa, M. Ishida, T. Nakajima, Y. Honda, O. Kitao, H. Nakai, 
 T. Vreven, K. Throssell, J. A. Montgomery, Jr., J. E. Peralta, 
 F. Ogliaro, M. J. Bearpark, J. J. Heyd, E. N. Brothers, K. N. Kudin, 
 V. N. Staroverov, T. A. Keith, R. Kobayashi, J. Normand, 
 K. Raghavachari, A. P. Rendell, J. C. Burant, S. S. Iyengar, 
 J. Tomasi, M. Cossi, J. M. Millam, M. Klene, C. Adamo, R. Cammi, 
 J. W. Ochterski, R. L. Martin, K. Morokuma, O. Farkas, 
 J. B. Foresman, and D. J. Fox, Gaussian, Inc., Wallingford CT, 2019.
 
 ************************************************
 Gaussian 16:  Fujitsu-Arm-G16RevC.01  3-Jul-2019
                   27-Sep-2023 
 ************************************************
 %mem=24GB
 %nproc=42
 Will use up to   42 processors via shared memory.
 -------------------------------------------------------------
 #P TEST b3lyp/6-311G** EmpiricalDispersion=GD3 counterpoise=2
 -------------------------------------------------------------
 1/38=1,62=2,172=1/1;
 2/12=2,17=6,18=5,40=1/2;
 1/38=1,53=2,62=2,63=1/22;
 3/5=4,6=6,7=101,11=2,25=1,30=1,74=-5,124=31/1,2,3;
 4//1;
 5/5=2,38=5/2;
 6/7=2,8=2,9=2,10=2,28=1/1;
 1/53=2,62=2,63=1/22;
 3/5=7,6=11,7=101,11=2,25=1,30=1,74=-5,82=7,124=31/1,2,3;
 4//1;
 5/5=2,38=5/2;
 6/7=2,8=2,9=2,10=2,28=1/1;
 1/53=2,62=2,63=1/22(-4);
 99/5=1,9=1/99;
 Leave Link    1 at Wed Sep 27 16:57:23 2023, MaxMem=  3221225472 cpu:               6.6 elap:               0.2
 (Enter /home/center/opt/aarch64/apps/gaussian16/c01/g16/l101.exe)
 ----------------------------
 pentacene_A1=0_A2=0_A3=45_t1
 ----------------------------
 Symbolic Z-matrix:
 Charge =  0 Multiplicity = 1 in supermolecule
 Charge =  0 Multiplicity = 1 in fragment      1.
 Charge =  0 Multiplicity = 1 in fragment      2.
 C(Fragment=1)        -0.50395   0.52395  -3.66128 
 C(Fragment=1)         0.52395  -0.50395  -3.66128 
 C(Fragment=1)        -0.98612   1.00612  -4.92359 
 C(Fragment=1)         1.00613  -0.98613  -4.92359 
 C(Fragment=1)        -0.49632   0.51632  -6.09636 
 C(Fragment=1)         0.51632  -0.49632  -6.09636 
 C(Fragment=1)        -0.98447   1.00447  -2.45332 
 C(Fragment=1)        -0.50449   0.52449  -1.21403 
 C(Fragment=1)         1.00447  -0.98447  -2.45332 
 C(Fragment=1)         0.52449  -0.50449  -1.21403 
 H(Fragment=1)        -1.75336   1.77336  -4.92326 
 H(Fragment=1)        -1.75219   1.77219  -2.45393 
 H(Fragment=1)         1.77219  -1.75219  -2.45393 
 H(Fragment=1)         1.77336  -1.75336  -4.92326 
 H(Fragment=1)         0.89056  -0.87056  -7.04253 
 H(Fragment=1)        -0.87056   0.89056  -7.04253 
 C(Fragment=1)        -0.98482   1.00482   0.01 
 C(Fragment=1)        -0.50449   0.52449   1.23403 
 C(Fragment=1)         1.00482  -0.98482   0.01 
 C(Fragment=1)         0.52449  -0.50449   1.23403 
 H(Fragment=1)        -1.75247   1.77247   0.01 
 H(Fragment=1)         1.77247  -1.75247   0.01 
 C(Fragment=1)        -0.98447   1.00447   2.47332 
 C(Fragment=1)        -0.50395   0.52395   3.68128 
 C(Fragment=1)         1.00447  -0.98447   2.47332 
 C(Fragment=1)         0.52395  -0.50395   3.68128 
 H(Fragment=1)        -1.75219   1.77219   2.47393 
 H(Fragment=1)         1.77219  -1.75219   2.47393 
 C(Fragment=1)        -0.98612   1.00612   4.94359 
 C(Fragment=1)        -0.49632   0.51632   6.11636 
 C(Fragment=1)         1.00612  -0.98612   4.94359 
 C(Fragment=1)         0.51632  -0.49632   6.11636 
 H(Fragment=1)        -1.75336   1.77336   4.94326 
 H(Fragment=1)        -0.87056   0.89056   7.06253 
 H(Fragment=1)         0.89056  -0.87056   7.06253 
 H(Fragment=1)         1.77336  -1.75336   4.94326 
 C(Fragment=2)         4.77395   3.02395  -3.66128 
 C(Fragment=2)         3.74605   1.99605  -3.66128 
 C(Fragment=2)         5.25612   3.50612  -4.92359 
 C(Fragment=2)         3.26387   1.51387  -4.92359 
 C(Fragment=2)         4.76632   3.01632  -6.09636 
 C(Fragment=2)         3.75368   2.00368  -6.09636 
 C(Fragment=2)         5.25447   3.50447  -2.45332 
 C(Fragment=2)         4.77449   3.02449  -1.21403 
 C(Fragment=2)         3.26553   1.51553  -2.45332 
 C(Fragment=2)         3.74551   1.99551  -1.21403 
 H(Fragment=2)         6.02336   4.27336  -4.92326 
 H(Fragment=2)         6.02219   4.27219  -2.45393 
 H(Fragment=2)         2.49781   0.74781  -2.45393 
 H(Fragment=2)         2.49664   0.74664  -4.92326 
 H(Fragment=2)         3.37944   1.62944  -7.04253 
 H(Fragment=2)         5.14056   3.39056  -7.04253 
 C(Fragment=2)         5.25482   3.50482   0.01 
 C(Fragment=2)         4.77449   3.02449   1.23403 
 C(Fragment=2)         3.26518   1.51518   0.01 
 C(Fragment=2)         3.74551   1.99551   1.23403 
 H(Fragment=2)         6.02247   4.27247   0.01 
 H(Fragment=2)         2.49753   0.74753   0.01 
 C(Fragment=2)         5.25447   3.50447   2.47332 
 C(Fragment=2)         4.77395   3.02395   3.68128 
 C(Fragment=2)         3.26553   1.51553   2.47332 
 C(Fragment=2)         3.74605   1.99605   3.68128 
 H(Fragment=2)         6.02219   4.27219   2.47393 
 H(Fragment=2)         2.49781   0.74781   2.47393 
 C(Fragment=2)         5.25612   3.50612   4.94359 
 C(Fragment=2)         4.76632   3.01632   6.11636 
 C(Fragment=2)         3.26388   1.51388   4.94359 
 C(Fragment=2)         3.75368   2.00368   6.11636 
 H(Fragment=2)         6.02336   4.27336   4.94326 
 H(Fragment=2)         5.14056   3.39056   7.06253 
 H(Fragment=2)         3.37944   1.62944   7.06253 
 H(Fragment=2)         2.49664   0.74664   4.94326 
 
 ITRead=  0  0  0  0  0  0  0  0  0  0  0  0  0  0  0  0  0  0  0  0
 ITRead=  0  0  0  0  0  0  0  0  0  0  0  0  0  0  0  0  0  0  0  0
 ITRead=  0  0  0  0  0  0  0  0  0  0  0  0  0  0  0  0  0  0  0  0
 ITRead=  0  0  0  0  0  0  0  0  0  0  0  0
 MicOpt= -1 -1 -1 -1 -1 -1 -1 -1 -1 -1 -1 -1 -1 -1 -1 -1 -1 -1 -1 -1
 MicOpt= -1 -1 -1 -1 -1 -1 -1 -1 -1 -1 -1 -1 -1 -1 -1 -1 -1 -1 -1 -1
 MicOpt= -1 -1 -1 -1 -1 -1 -1 -1 -1 -1 -1 -1 -1 -1 -1 -1 -1 -1 -1 -1
 MicOpt= -1 -1 -1 -1 -1 -1 -1 -1 -1 -1 -1 -1
 NAtoms=     72 NQM=       72 NQMF=       0 NMMI=      0 NMMIF=      0
                NMic=       0 NMicF=      0.
                    Isotopes and Nuclear Properties:
 (Nuclear quadrupole moments (NQMom) in fm**2, nuclear magnetic moments (NMagM)
  in nuclear magnetons)

  Atom         1           2           3           4           5           6           7           8           9          10
 IAtWgt=          12          12          12          12          12          12          12          12          12          12
 AtmWgt=  12.0000000  12.0000000  12.0000000  12.0000000  12.0000000  12.0000000  12.0000000  12.0000000  12.0000000  12.0000000
 NucSpn=           0           0           0           0           0           0           0           0           0           0
 AtZEff=   0.0000000   0.0000000   0.0000000   0.0000000   0.0000000   0.0000000   0.0000000   0.0000000   0.0000000   0.0000000
 NQMom=    0.0000000   0.0000000   0.0000000   0.0000000   0.0000000   0.0000000   0.0000000   0.0000000   0.0000000   0.0000000
 NMagM=    0.0000000   0.0000000   0.0000000   0.0000000   0.0000000   0.0000000   0.0000000   0.0000000   0.0000000   0.0000000
 AtZNuc=   6.0000000   6.0000000   6.0000000   6.0000000   6.0000000   6.0000000   6.0000000   6.0000000   6.0000000   6.0000000

  Atom        11          12          13          14          15          16          17          18          19          20
 IAtWgt=           1           1           1           1           1           1          12          12          12          12
 AtmWgt=   1.0078250   1.0078250   1.0078250   1.0078250   1.0078250   1.0078250  12.0000000  12.0000000  12.0000000  12.0000000
 NucSpn=           1           1           1           1           1           1           0           0           0           0
 AtZEff=   0.0000000   0.0000000   0.0000000   0.0000000   0.0000000   0.0000000   0.0000000   0.0000000   0.0000000   0.0000000
 NQMom=    0.0000000   0.0000000   0.0000000   0.0000000   0.0000000   0.0000000   0.0000000   0.0000000   0.0000000   0.0000000
 NMagM=    2.7928460   2.7928460   2.7928460   2.7928460   2.7928460   2.7928460   0.0000000   0.0000000   0.0000000   0.0000000
 AtZNuc=   1.0000000   1.0000000   1.0000000   1.0000000   1.0000000   1.0000000   6.0000000   6.0000000   6.0000000   6.0000000

  Atom        21          22          23          24          25          26          27          28          29          30
 IAtWgt=           1           1          12          12          12          12           1           1          12          12
 AtmWgt=   1.0078250   1.0078250  12.0000000  12.0000000  12.0000000  12.0000000   1.0078250   1.0078250  12.0000000  12.0000000
 NucSpn=           1           1           0           0           0           0           1           1           0           0
 AtZEff=   0.0000000   0.0000000   0.0000000   0.0000000   0.0000000   0.0000000   0.0000000   0.0000000   0.0000000   0.0000000
 NQMom=    0.0000000   0.0000000   0.0000000   0.0000000   0.0000000   0.0000000   0.0000000   0.0000000   0.0000000   0.0000000
 NMagM=    2.7928460   2.7928460   0.0000000   0.0000000   0.0000000   0.0000000   2.7928460   2.7928460   0.0000000   0.0000000
 AtZNuc=   1.0000000   1.0000000   6.0000000   6.0000000   6.0000000   6.0000000   1.0000000   1.0000000   6.0000000   6.0000000

  Atom        31          32          33          34          35          36          37          38          39          40
 IAtWgt=          12          12           1           1           1           1          12          12          12          12
 AtmWgt=  12.0000000  12.0000000   1.0078250   1.0078250   1.0078250   1.0078250  12.0000000  12.0000000  12.0000000  12.0000000
 NucSpn=           0           0           1           1           1           1           0           0           0           0
 AtZEff=   0.0000000   0.0000000   0.0000000   0.0000000   0.0000000   0.0000000   0.0000000   0.0000000   0.0000000   0.0000000
 NQMom=    0.0000000   0.0000000   0.0000000   0.0000000   0.0000000   0.0000000   0.0000000   0.0000000   0.0000000   0.0000000
 NMagM=    0.0000000   0.0000000   2.7928460   2.7928460   2.7928460   2.7928460   0.0000000   0.0000000   0.0000000   0.0000000
 AtZNuc=   6.0000000   6.0000000   1.0000000   1.0000000   1.0000000   1.0000000   6.0000000   6.0000000   6.0000000   6.0000000

  Atom        41          42          43          44          45          46          47          48          49          50
 IAtWgt=          12          12          12          12          12          12           1           1           1           1
 AtmWgt=  12.0000000  12.0000000  12.0000000  12.0000000  12.0000000  12.0000000   1.0078250   1.0078250   1.0078250   1.0078250
 NucSpn=           0           0           0           0           0           0           1           1           1           1
 AtZEff=   0.0000000   0.0000000   0.0000000   0.0000000   0.0000000   0.0000000   0.0000000   0.0000000   0.0000000   0.0000000
 NQMom=    0.0000000   0.0000000   0.0000000   0.0000000   0.0000000   0.0000000   0.0000000   0.0000000   0.0000000   0.0000000
 NMagM=    0.0000000   0.0000000   0.0000000   0.0000000   0.0000000   0.0000000   2.7928460   2.7928460   2.7928460   2.7928460
 AtZNuc=   6.0000000   6.0000000   6.0000000   6.0000000   6.0000000   6.0000000   1.0000000   1.0000000   1.0000000   1.0000000

  Atom        51          52          53          54          55          56          57          58          59          60
 IAtWgt=           1           1          12          12          12          12           1           1          12          12
 AtmWgt=   1.0078250   1.0078250  12.0000000  12.0000000  12.0000000  12.0000000   1.0078250   1.0078250  12.0000000  12.0000000
 NucSpn=           1           1           0           0           0           0           1           1           0           0
 AtZEff=   0.0000000   0.0000000   0.0000000   0.0000000   0.0000000   0.0000000   0.0000000   0.0000000   0.0000000   0.0000000
 NQMom=    0.0000000   0.0000000   0.0000000   0.0000000   0.0000000   0.0000000   0.0000000   0.0000000   0.0000000   0.0000000
 NMagM=    2.7928460   2.7928460   0.0000000   0.0000000   0.0000000   0.0000000   2.7928460   2.7928460   0.0000000   0.0000000
 AtZNuc=   1.0000000   1.0000000   6.0000000   6.0000000   6.0000000   6.0000000   1.0000000   1.0000000   6.0000000   6.0000000

  Atom        61          62          63          64          65          66          67          68          69          70
 IAtWgt=          12          12           1           1          12          12          12          12           1           1
 AtmWgt=  12.0000000  12.0000000   1.0078250   1.0078250  12.0000000  12.0000000  12.0000000  12.0000000   1.0078250   1.0078250
 NucSpn=           0           0           1           1           0           0           0           0           1           1
 AtZEff=   0.0000000   0.0000000   0.0000000   0.0000000   0.0000000   0.0000000   0.0000000   0.0000000   0.0000000   0.0000000
 NQMom=    0.0000000   0.0000000   0.0000000   0.0000000   0.0000000   0.0000000   0.0000000   0.0000000   0.0000000   0.0000000
 NMagM=    0.0000000   0.0000000   2.7928460   2.7928460   0.0000000   0.0000000   0.0000000   0.0000000   2.7928460   2.7928460
 AtZNuc=   6.0000000   6.0000000   1.0000000   1.0000000   6.0000000   6.0000000   6.0000000   6.0000000   1.0000000   1.0000000

  Atom        71          72
 IAtWgt=           1           1
 AtmWgt=   1.0078250   1.0078250
 NucSpn=           1           1
 AtZEff=   0.0000000   0.0000000
 NQMom=    0.0000000   0.0000000
 NMagM=    2.7928460   2.7928460
 AtZNuc=   1.0000000   1.0000000
 Leave Link  101 at Wed Sep 27 16:57:25 2023, MaxMem=  3221225472 cpu:               2.6 elap:               0.1
 (Enter /home/center/opt/aarch64/apps/gaussian16/c01/g16/l202.exe)
 Stoichiometry    C44H28
 Framework group  CS[SG(C4H4),X(C40H24)]
 Deg. of freedom   109
 Full point group                 CS      NOp   2
 Largest Abelian subgroup         CS      NOp   2
 Largest concise Abelian subgroup CS      NOp   2
                         Standard orientation:                         
 ---------------------------------------------------------------------
 Center     Atomic      Atomic             Coordinates (Angstroms)
 Number     Number       Type             X           Y           Z
 ---------------------------------------------------------------------
      1          6           0        1.345550   -2.386485    3.671276
      2          6           0       -0.108114   -2.386485    3.671276
      3          6           0        2.027452   -2.386485    4.933593
      4          6           0       -0.790015   -2.386485    4.933593
      5          6           0        1.334765   -2.386485    6.106357
      6          6           0       -0.097329   -2.386485    6.106357
      7          6           0        2.025109   -2.386485    2.463318
      8          6           0        1.346315   -2.386485    1.224029
      9          6           0       -0.787672   -2.386485    2.463317
     10          6           0       -0.108878   -2.386485    1.224029
     11          1           0        3.112480   -2.386485    4.933260
     12          1           0        3.110827   -2.386485    2.463929
     13          1           0       -1.873389   -2.386485    2.463929
     14          1           0       -1.875043   -2.386485    4.933260
     15          1           0       -0.626577   -2.386485    7.052528
     16          1           0        1.864013   -2.386485    7.052528
     17          6           0        2.025604   -2.386485    0.000000
     18          6           0        1.346315   -2.386485   -1.224029
     19          6           0       -0.788167   -2.386485    0.000000
     20          6           0       -0.108878   -2.386485   -1.224029
     21          1           0        3.111227   -2.386485    0.000000
     22          1           0       -1.873789   -2.386485    0.000000
     23          6           0        2.025109   -2.386485   -2.463318
     24          6           0        1.345550   -2.386485   -3.671276
     25          6           0       -0.787672   -2.386485   -2.463317
     26          6           0       -0.108114   -2.386485   -3.671276
     27          1           0        3.110827   -2.386485   -2.463929
     28          1           0       -1.873389   -2.386485   -2.463929
     29          6           0        2.027452   -2.386485   -4.933593
     30          6           0        1.334765   -2.386485   -6.106357
     31          6           0       -0.790015   -2.386485   -4.933593
     32          6           0       -0.097329   -2.386485   -6.106357
     33          1           0        3.112480   -2.386485   -4.933260
     34          1           0        1.864013   -2.386485   -7.052528
     35          1           0       -0.626577   -2.386485   -7.052528
     36          1           0       -1.875043   -2.386485   -4.933260
     37          6           0       -0.618718    3.113317    3.671276
     38          6           0       -0.618718    1.659653    3.671276
     39          6           0       -0.618718    3.795219    4.933593
     40          6           0       -0.618718    0.977752    4.933593
     41          6           0       -0.618718    3.102532    6.106357
     42          6           0       -0.618718    1.670438    6.106357
     43          6           0       -0.618718    3.792876    2.463318
     44          6           0       -0.618718    3.114082    1.224029
     45          6           0       -0.618718    0.980095    2.463317
     46          6           0       -0.618718    1.658889    1.224029
     47          1           0       -0.618718    4.880247    4.933260
     48          1           0       -0.618718    4.878594    2.463929
     49          1           0       -0.618718   -0.105622    2.463929
     50          1           0       -0.618718   -0.107276    4.933260
     51          1           0       -0.618718    1.141190    7.052528
     52          1           0       -0.618718    3.631780    7.052528
     53          6           0       -0.618718    3.793371    0.000000
     54          6           0       -0.618718    3.114082   -1.224029
     55          6           0       -0.618718    0.979600    0.000000
     56          6           0       -0.618718    1.658889   -1.224029
     57          1           0       -0.618718    4.878994    0.000000
     58          1           0       -0.618718   -0.106022    0.000000
     59          6           0       -0.618718    3.792876   -2.463318
     60          6           0       -0.618718    3.113317   -3.671276
     61          6           0       -0.618718    0.980095   -2.463317
     62          6           0       -0.618718    1.659653   -3.671276
     63          1           0       -0.618718    4.878594   -2.463929
     64          1           0       -0.618718   -0.105622   -2.463929
     65          6           0       -0.618718    3.795219   -4.933593
     66          6           0       -0.618718    3.102532   -6.106357
     67          6           0       -0.618718    0.977752   -4.933593
     68          6           0       -0.618718    1.670438   -6.106357
     69          1           0       -0.618718    4.880247   -4.933260
     70          1           0       -0.618718    3.631780   -7.052528
     71          1           0       -0.618718    1.141190   -7.052528
     72          1           0       -0.618718   -0.107276   -4.933260
 ---------------------------------------------------------------------
 Rotational constants (GHZ):           0.1219340           0.0563744           0.0409364
 Leave Link  202 at Wed Sep 27 16:57:27 2023, MaxMem=  3221225472 cpu:               0.6 elap:               0.0
 (Enter /home/center/opt/aarch64/apps/gaussian16/c01/g16/l122.exe)
 Counterpoise: doing full-system calculation.
 Leave Link  122 at Wed Sep 27 16:57:29 2023, MaxMem=  3221225472 cpu:               0.2 elap:               0.0
 (Enter /home/center/opt/aarch64/apps/gaussian16/c01/g16/l301.exe)
 Standard basis: 6-311G(d,p) (5D, 7F)
 Ernie: Thresh=  0.10000D-02 Tol=  0.10000D-05 Strict=F.
 There are   528 symmetry adapted cartesian basis functions of A'  symmetry.
 There are   476 symmetry adapted cartesian basis functions of A"  symmetry.
 There are   504 symmetry adapted basis functions of A'  symmetry.
 There are   456 symmetry adapted basis functions of A"  symmetry.
   960 basis functions,  1632 primitive gaussians,  1004 cartesian basis functions
   146 alpha electrons      146 beta electrons
       nuclear repulsion energy      4715.0238978189 Hartrees.
 IExCor=  402 DFT=T Ex+Corr=B3LYP ExCW=0 ScaHFX=  0.200000
 ScaDFX=  0.800000  0.720000  1.000000  0.810000 ScalE2=  1.000000  1.000000
 IRadAn=      5 IRanWt=     -1 IRanGd=            0 ICorTp=0 IEmpDi=131
 NAtoms=   72 NActive=   72 NUniq=   40 SFac= 3.24D+00 NAtFMM=   60 NAOKFM=T Big=F
 Integral buffers will be    131072 words long.
 Raffenetti 2 integral format.
 Two-electron integral symmetry is turned on.
 R6Disp:  Grimme-D3 Dispersion energy=       -0.0883693159 Hartrees.
 Nuclear repulsion after empirical dispersion term =     4714.9355285030 Hartrees.
 Leave Link  301 at Wed Sep 27 16:57:32 2023, MaxMem=  3221225472 cpu:               1.9 elap:               0.1
 (Enter /home/center/opt/aarch64/apps/gaussian16/c01/g16/l302.exe)
 NPDir=0 NMtPBC=     1 NCelOv=     1 NCel=       1 NClECP=     1 NCelD=      1
         NCelK=      1 NCelE2=     1 NClLst=     1 CellRange=     0.0.
 One-electron integrals computed using PRISM.
 One-electron integral symmetry used in STVInt
 NBasis=   960 RedAO= T EigKep=  3.65D-05  NBF=   504   456
 NBsUse=   960 1.00D-06 EigRej= -1.00D+00 NBFU=   504   456
 Precomputing XC quadrature grid using
 IXCGrd= 4 IRadAn=           5 IRanWt=          -1 IRanGd=           0 AccXCQ= 0.00D+00.
 Generated NRdTot=       0 NPtTot=           0 NUsed=           0 NTot=          32
 NSgBfM=   991   991   991   991   991 MxSgAt=    72 MxSgA2=    72.
 Leave Link  302 at Wed Sep 27 16:57:36 2023, MaxMem=  3221225472 cpu:              65.3 elap:               2.0
 (Enter /home/center/opt/aarch64/apps/gaussian16/c01/g16/l303.exe)
 DipDrv:  MaxL=1.
 Leave Link  303 at Wed Sep 27 16:57:39 2023, MaxMem=  3221225472 cpu:              13.9 elap:               0.4
 (Enter /home/center/opt/aarch64/apps/gaussian16/c01/g16/l401.exe)
 ExpMin= 1.03D-01 ExpMax= 4.56D+03 ExpMxC= 6.82D+02 IAcc=3 IRadAn=         5 AccDes= 0.00D+00
 Harris functional with IExCor=  402 and IRadAn=       5 diagonalized for initial guess.
 HarFok:  IExCor=  402 AccDes= 0.00D+00 IRadAn=         5 IDoV= 1 UseB2=F ITyADJ=14
 ICtDFT=  3500011 ScaDFX=  1.000000  1.000000  1.000000  1.000000
 FoFCou: FMM=F IPFlag=           0 FMFlag=      100000 FMFlg1=        2000
         NFxFlg=           0 DoJE=T BraDBF=F KetDBF=T FulRan=T
         wScrn=  0.000000 ICntrl=       500 IOpCl=  0 I1Cent=   200000004 NGrid=           0
         NMat0=    1 NMatS0=      1 NMatT0=    0 NMatD0=    1 NMtDS0=    0 NMtDT0=    0
 Petite list used in FoFCou.
 Harris En= -1694.12758849848    
 JPrj=0 DoOrth=F DoCkMO=F.
 Initial guess orbital symmetries:
       Occupied  (A") (A') (A") (A') (A") (A') (A') (A") (A") (A')
                 (A") (A') (A") (A') (A") (A') (A") (A') (A') (A")
                 (A') (A") (A') (A") (A') (A') (A') (A') (A") (A')
                 (A") (A') (A") (A') (A") (A') (A") (A') (A") (A')
                 (A") (A') (A') (A") (A') (A') (A") (A") (A') (A')
                 (A") (A") (A') (A') (A') (A') (A") (A") (A') (A')
                 (A") (A") (A") (A") (A') (A') (A') (A') (A") (A")
                 (A") (A") (A') (A') (A") (A') (A") (A') (A') (A')
                 (A') (A') (A") (A") (A") (A") (A') (A") (A") (A')
                 (A') (A') (A") (A") (A') (A') (A') (A') (A") (A")
                 (A') (A') (A") (A") (A") (A") (A') (A') (A') (A')
                 (A") (A") (A') (A') (A") (A") (A') (A") (A') (A")
                 (A') (A") (A") (A') (A') (A') (A") (A") (A') (A')
                 (A") (A") (A') (A') (A") (A") (A') (A') (A') (A')
                 (A") (A") (A") (A") (A') (A')
       Virtual   (A') (A') (A") (A") (A") (A") (A') (A') (A') (A')
                 (A") (A") (A') (A') (A") (A") (A') (A") (A') (A')
                 (A') (A') (A") (A') (A") (A') (A") (A") (A') (A')
                 (A") (A") (A') (A") (A") (A') (A") (A') (A') (A')
                 (A") (A') (A") (A') (A") (A') (A") (A') (A') (A')
                 (A') (A") (A') (A") (A') (A') (A") (A") (A') (A")
                 (A') (A") (A") (A") (A') (A') (A") (A") (A') (A")
                 (A') (A") (A') (A') (A") (A') (A") (A") (A') (A")
                 (A') (A') (A") (A') (A") (A') (A') (A') (A") (A')
                 (A') (A") (A") (A") (A') (A") (A') (A") (A') (A')
                 (A") (A') (A") (A') (A") (A') (A") (A') (A") (A')
                 (A') (A") (A') (A") (A') (A') (A") (A') (A") (A')
                 (A') (A") (A') (A") (A") (A') (A") (A') (A") (A')
                 (A") (A") (A') (A') (A") (A") (A') (A') (A') (A")
                 (A') (A") (A") (A") (A') (A') (A') (A') (A') (A")
                 (A") (A') (A') (A") (A") (A") (A') (A") (A') (A")
                 (A') (A') (A") (A') (A") (A') (A") (A') (A') (A")
                 (A') (A') (A") (A') (A") (A") (A') (A") (A') (A")
                 (A') (A") (A') (A') (A') (A") (A") (A') (A') (A")
                 (A") (A') (A") (A') (A") (A') (A") (A') (A') (A")
                 (A') (A") (A") (A') (A') (A") (A') (A') (A") (A")
                 (A') (A") (A") (A') (A') (A") (A") (A') (A") (A')
                 (A') (A") (A') (A") (A") (A') (A") (A') (A') (A")
                 (A') (A') (A') (A") (A') (A') (A") (A") (A') (A")
                 (A') (A") (A") (A') (A") (A') (A") (A') (A') (A")
                 (A") (A') (A") (A') (A') (A") (A') (A") (A') (A")
                 (A') (A") (A") (A') (A') (A") (A") (A') (A") (A')
                 (A") (A") (A') (A') (A') (A") (A") (A') (A") (A')
                 (A") (A') (A") (A') (A") (A') (A') (A") (A') (A")
                 (A') (A') (A") (A") (A") (A") (A') (A") (A') (A')
                 (A") (A') (A') (A") (A') (A') (A") (A') (A") (A")
                 (A') (A") (A") (A") (A') (A') (A') (A") (A') (A')
                 (A') (A") (A") (A') (A') (A") (A') (A") (A") (A")
                 (A') (A") (A') (A") (A') (A') (A") (A") (A') (A')
                 (A") (A') (A') (A") (A') (A") (A') (A") (A') (A")
                 (A') (A') (A") (A') (A') (A') (A") (A") (A') (A')
                 (A") (A') (A') (A") (A") (A') (A") (A") (A") (A')
                 (A") (A") (A') (A") (A") (A') (A") (A') (A') (A')
                 (A") (A') (A') (A") (A') (A') (A") (A') (A") (A")
                 (A') (A') (A') (A") (A") (A') (A") (A') (A') (A")
                 (A") (A') (A") (A') (A') (A") (A') (A") (A") (A')
                 (A') (A") (A') (A') (A") (A') (A") (A') (A') (A")
                 (A') (A') (A') (A") (A") (A") (A') (A') (A") (A')
                 (A") (A") (A") (A") (A') (A") (A') (A") (A') (A")
                 (A') (A") (A") (A') (A') (A') (A") (A') (A") (A")
                 (A') (A') (A') (A") (A") (A") (A') (A') (A') (A")
                 (A') (A") (A") (A') (A") (A') (A") (A') (A") (A')
                 (A") (A') (A") (A') (A') (A") (A") (A') (A') (A')
                 (A") (A") (A") (A') (A") (A') (A") (A") (A') (A")
                 (A") (A') (A") (A') (A") (A") (A') (A") (A') (A')
                 (A") (A') (A') (A") (A') (A") (A') (A') (A") (A")
                 (A') (A') (A") (A") (A') (A') (A") (A') (A") (A")
                 (A') (A") (A') (A') (A") (A') (A') (A') (A") (A")
                 (A') (A") (A") (A") (A') (A") (A') (A") (A') (A')
                 (A") (A") (A') (A') (A') (A") (A") (A") (A') (A")
                 (A') (A") (A') (A") (A') (A") (A") (A') (A') (A')
                 (A") (A") (A') (A') (A') (A') (A") (A") (A') (A")
                 (A") (A') (A") (A') (A") (A') (A') (A") (A") (A')
                 (A') (A') (A") (A") (A') (A') (A') (A") (A") (A')
                 (A') (A') (A") (A') (A") (A') (A") (A") (A') (A')
                 (A") (A') (A') (A") (A") (A') (A") (A") (A') (A')
                 (A") (A') (A') (A") (A") (A') (A") (A') (A") (A')
                 (A") (A') (A") (A') (A") (A') (A") (A') (A') (A')
                 (A") (A') (A') (A") (A") (A") (A') (A") (A") (A')
                 (A") (A') (A") (A') (A') (A") (A') (A') (A") (A')
                 (A') (A") (A') (A') (A") (A') (A") (A') (A") (A')
                 (A") (A") (A') (A") (A') (A") (A') (A') (A") (A')
                 (A") (A") (A') (A') (A') (A") (A") (A") (A') (A')
                 (A") (A') (A") (A') (A') (A") (A") (A') (A") (A")
                 (A') (A') (A") (A') (A") (A') (A') (A") (A') (A")
                 (A") (A') (A") (A') (A') (A") (A') (A") (A') (A")
                 (A") (A") (A') (A') (A") (A') (A') (A") (A') (A")
                 (A') (A") (A') (A') (A") (A") (A') (A') (A') (A")
                 (A") (A') (A') (A") (A") (A') (A') (A") (A') (A")
                 (A") (A') (A') (A") (A') (A') (A") (A') (A') (A')
                 (A") (A') (A") (A") (A") (A') (A') (A') (A") (A")
                 (A") (A') (A") (A') (A") (A") (A') (A") (A') (A")
                 (A') (A') (A") (A") (A') (A') (A') (A") (A') (A")
                 (A") (A") (A') (A') (A") (A') (A') (A") (A') (A')
                 (A") (A") (A") (A") (A') (A') (A') (A') (A") (A")
                 (A') (A') (A") (A") (A') (A') (A") (A') (A") (A')
                 (A') (A') (A") (A")
 The electronic state of the initial guess is 1-A'.
 Leave Link  401 at Wed Sep 27 16:57:44 2023, MaxMem=  3221225472 cpu:             109.0 elap:               2.7
 (Enter /home/center/opt/aarch64/apps/gaussian16/c01/g16/l502.exe)
 Integral symmetry usage will be decided dynamically.
 Closed shell SCF:
 Using DIIS extrapolation, IDIIS=  1040.
 NGot=  3221225472 LenX=  3219153746 LenY=  3218144726
 Requested convergence on RMS density matrix=1.00D-08 within 128 cycles.
 Requested convergence on MAX density matrix=1.00D-06.
 Requested convergence on             energy=1.00D-06.
 No special actions if energy rises.
 Fock matrices will be formed incrementally for  20 cycles.
 Integral accuracy reduced to 1.0D-05 until final iterations.

 Cycle   1  Pass 0  IDiag  1:
 FoFJK:  IHMeth= 1 ICntrl=       0 DoSepK=F KAlg= 0 I1Cent=           0 FoldK=F
 IRaf= 570000000 NMat=       1 IRICut=       1 DoRegI=T DoRafI=F ISym2E= 1 IDoP0=0 IntGTp=1.
 FoFCou: FMM=F IPFlag=           0 FMFlag=      100000 FMFlg1=        2000
         NFxFlg=           0 DoJE=F BraDBF=F KetDBF=F FulRan=T
         wScrn=  0.000000 ICntrl=         0 IOpCl=  0 I1Cent=           0 NGrid=           0
         NMat0=    1 NMatS0=      1 NMatT0=    0 NMatD0=    1 NMtDS0=    0 NMtDT0=    0
 Petite list used in FoFCou.
 E= -1693.17224549099    
 DIIS: error= 4.43D-02 at cycle   1 NSaved=   1.
 NSaved= 1 IEnMin= 1 EnMin= -1693.17224549099     IErMin= 1 ErrMin= 4.43D-02
 ErrMax= 4.43D-02  0.00D+00 EMaxC= 1.00D-01 BMatC= 8.94D-01 BMatP= 8.94D-01
 IDIUse=3 WtCom= 5.57D-01 WtEn= 4.43D-01
 Coeff-Com:  0.100D+01
 Coeff-En:   0.100D+01
 Coeff:      0.100D+01
 Gap=     0.053 Goal=   None    Shift=    0.000
 GapD=    0.053 DampG=0.500 DampE=0.500 DampFc=0.2500 IDamp=-1.
 Damping current iteration by 2.50D-01
 RMSDP=1.72D-03 MaxDP=8.43D-02              OVMax= 1.55D-01

 Cycle   2  Pass 0  IDiag  1:
 RMSU=  4.17D-04    CP:  9.82D-01
 E= -1693.47767216077     Delta-E=       -0.305426669775 Rises=F Damp=T
 DIIS: error= 2.64D-02 at cycle   2 NSaved=   2.
 NSaved= 2 IEnMin= 2 EnMin= -1693.47767216077     IErMin= 2 ErrMin= 2.64D-02
 ErrMax= 2.64D-02  0.00D+00 EMaxC= 1.00D-01 BMatC= 2.99D-01 BMatP= 8.94D-01
 IDIUse=3 WtCom= 7.36D-01 WtEn= 2.64D-01
 Coeff-Com: -0.122D+01 0.222D+01
 Coeff-En:   0.000D+00 0.100D+01
 Coeff:     -0.898D+00 0.190D+01
 Gap=     0.056 Goal=   None    Shift=    0.000
 RMSDP=7.15D-04 MaxDP=3.43D-02 DE=-3.05D-01 OVMax= 1.27D-01

 Cycle   3  Pass 0  IDiag  1:
 RMSU=  4.57D-04    CP:  9.56D-01  2.26D+00
 E= -1694.03626462837     Delta-E=       -0.558592467601 Rises=F Damp=F
 DIIS: error= 7.16D-03 at cycle   3 NSaved=   3.
 NSaved= 3 IEnMin= 3 EnMin= -1694.03626462837     IErMin= 3 ErrMin= 7.16D-03
 ErrMax= 7.16D-03  0.00D+00 EMaxC= 1.00D-01 BMatC= 1.30D-02 BMatP= 2.99D-01
 IDIUse=3 WtCom= 9.28D-01 WtEn= 7.16D-02
 Coeff-Com: -0.277D+00 0.560D+00 0.717D+00
 Coeff-En:   0.000D+00 0.000D+00 0.100D+01
 Coeff:     -0.257D+00 0.520D+00 0.737D+00
 Gap=     0.064 Goal=   None    Shift=    0.000
 RMSDP=2.75D-04 MaxDP=1.79D-02 DE=-5.59D-01 OVMax= 1.49D-01

 Cycle   4  Pass 0  IDiag  1:
 RMSU=  2.32D-04    CP:  9.57D-01  2.16D+00  6.87D-01
 E= -1694.02819850307     Delta-E=        0.008066125303 Rises=F Damp=F
 DIIS: error= 1.23D-02 at cycle   4 NSaved=   4.
 NSaved= 4 IEnMin= 3 EnMin= -1694.03626462837     IErMin= 3 ErrMin= 7.16D-03
 ErrMax= 1.23D-02  0.00D+00 EMaxC= 1.00D-01 BMatC= 1.82D-02 BMatP= 1.30D-02
 IDIUse=2 WtCom= 0.00D+00 WtEn= 1.00D+00
 Coeff-En:   0.000D+00 0.000D+00 0.590D+00 0.410D+00
 Coeff:      0.000D+00 0.000D+00 0.590D+00 0.410D+00
 Gap=     0.059 Goal=   None    Shift=    0.000
 RMSDP=1.62D-04 MaxDP=1.23D-02 DE= 8.07D-03 OVMax= 1.16D-01

 Cycle   5  Pass 0  IDiag  1:
 RMSU=  8.27D-05    CP:  9.57D-01  2.15D+00  7.74D-01  4.26D-01
 E= -1694.04914469809     Delta-E=       -0.020946195021 Rises=F Damp=F
 DIIS: error= 2.93D-03 at cycle   5 NSaved=   5.
 NSaved= 5 IEnMin= 5 EnMin= -1694.04914469809     IErMin= 5 ErrMin= 2.93D-03
 ErrMax= 2.93D-03  0.00D+00 EMaxC= 1.00D-01 BMatC= 1.17D-03 BMatP= 1.30D-02
 IDIUse=3 WtCom= 9.71D-01 WtEn= 2.93D-02
 Coeff-Com: -0.173D-01 0.383D-01 0.275D+00 0.224D+00 0.480D+00
 Coeff-En:   0.000D+00 0.000D+00 0.000D+00 0.000D+00 0.100D+01
 Coeff:     -0.168D-01 0.371D-01 0.267D+00 0.218D+00 0.495D+00
 Gap=     0.060 Goal=   None    Shift=    0.000
 RMSDP=5.25D-05 MaxDP=3.92D-03 DE=-2.09D-02 OVMax= 3.31D-02

 Cycle   6  Pass 0  IDiag  1:
 RMSU=  3.17D-05    CP:  9.57D-01  2.17D+00  7.93D-01  4.85D-01  5.48D-01
 E= -1694.04997886888     Delta-E=       -0.000834170797 Rises=F Damp=F
 DIIS: error= 1.65D-03 at cycle   6 NSaved=   6.
 NSaved= 6 IEnMin= 6 EnMin= -1694.04997886888     IErMin= 6 ErrMin= 1.65D-03
 ErrMax= 1.65D-03  0.00D+00 EMaxC= 1.00D-01 BMatC= 3.65D-04 BMatP= 1.17D-03
 IDIUse=3 WtCom= 9.84D-01 WtEn= 1.65D-02
 Coeff-Com: -0.551D-02 0.884D-02 0.119D+00 0.103D+00 0.373D+00 0.402D+00
 Coeff-En:   0.000D+00 0.000D+00 0.000D+00 0.000D+00 0.285D+00 0.715D+00
 Coeff:     -0.542D-02 0.869D-02 0.117D+00 0.101D+00 0.371D+00 0.407D+00
 Gap=     0.059 Goal=   None    Shift=    0.000
 RMSDP=2.56D-05 MaxDP=1.75D-03 DE=-8.34D-04 OVMax= 1.34D-02

 Cycle   7  Pass 0  IDiag  1:
 RMSU=  1.05D-05    CP:  9.57D-01  2.17D+00  7.95D-01  4.64D-01  6.30D-01
                    CP:  3.09D-01
 E= -1694.05039729064     Delta-E=       -0.000418421758 Rises=F Damp=F
 DIIS: error= 3.29D-04 at cycle   7 NSaved=   7.
 NSaved= 7 IEnMin= 7 EnMin= -1694.05039729064     IErMin= 7 ErrMin= 3.29D-04
 ErrMax= 3.29D-04  0.00D+00 EMaxC= 1.00D-01 BMatC= 2.93D-05 BMatP= 3.65D-04
 IDIUse=3 WtCom= 9.97D-01 WtEn= 3.29D-03
 Coeff-Com: -0.150D-02 0.165D-02 0.605D-01 0.523D-01 0.217D+00 0.284D+00
 Coeff-Com:  0.387D+00
 Coeff-En:   0.000D+00 0.000D+00 0.000D+00 0.000D+00 0.000D+00 0.445D-01
 Coeff-En:   0.956D+00
 Coeff:     -0.150D-02 0.164D-02 0.603D-01 0.522D-01 0.216D+00 0.283D+00
 Coeff:      0.388D+00
 Gap=     0.059 Goal=   None    Shift=    0.000
 RMSDP=6.93D-06 MaxDP=4.18D-04 DE=-4.18D-04 OVMax= 3.47D-03

 Initial convergence to 1.0D-05 achieved.  Increase integral accuracy.
 Cycle   8  Pass 1  IDiag  1:
 E= -1694.05008747513     Delta-E=        0.000309815508 Rises=F Damp=F
 DIIS: error= 7.15D-04 at cycle   1 NSaved=   1.
 NSaved= 1 IEnMin= 1 EnMin= -1694.05008747513     IErMin= 1 ErrMin= 7.15D-04
 ErrMax= 7.15D-04  0.00D+00 EMaxC= 1.00D-01 BMatC= 4.84D-05 BMatP= 4.84D-05
 IDIUse=3 WtCom= 9.93D-01 WtEn= 7.15D-03
 Coeff-Com:  0.100D+01
 Coeff-En:   0.100D+01
 Coeff:      0.100D+01
 Gap=     0.059 Goal=   None    Shift=    0.000
 RMSDP=6.93D-06 MaxDP=4.18D-04 DE= 3.10D-04 OVMax= 3.29D-03

 Cycle   9  Pass 1  IDiag  1:
 RMSU=  3.15D-04    CP:  9.98D-01
 E= -1694.05012348896     Delta-E=       -0.000036013831 Rises=F Damp=F
 DIIS: error= 2.98D-04 at cycle   2 NSaved=   2.
 NSaved= 2 IEnMin= 2 EnMin= -1694.05012348896     IErMin= 2 ErrMin= 2.98D-04
 ErrMax= 2.98D-04  0.00D+00 EMaxC= 1.00D-01 BMatC= 8.61D-06 BMatP= 4.84D-05
 IDIUse=3 WtCom= 9.97D-01 WtEn= 2.98D-03
 Coeff-Com:  0.183D+00 0.817D+00
 Coeff-En:   0.000D+00 0.100D+01
 Coeff:      0.183D+00 0.817D+00
 Gap=     0.059 Goal=   None    Shift=    0.000
 RMSDP=1.09D-05 MaxDP=8.50D-04 DE=-3.60D-05 OVMax= 7.70D-03

 Cycle  10  Pass 1  IDiag  1:
 RMSU=  1.06D-05    CP:  9.98D-01  1.01D+00
 E= -1694.05008599105     Delta-E=        0.000037497919 Rises=F Damp=F
 DIIS: error= 6.60D-04 at cycle   3 NSaved=   3.
 NSaved= 3 IEnMin= 2 EnMin= -1694.05012348896     IErMin= 2 ErrMin= 2.98D-04
 ErrMax= 6.60D-04  0.00D+00 EMaxC= 1.00D-01 BMatC= 3.83D-05 BMatP= 8.61D-06
 IDIUse=3 WtCom= 2.80D-01 WtEn= 7.20D-01
 Coeff-Com: -0.128D-03 0.680D+00 0.320D+00
 Coeff-En:   0.000D+00 0.746D+00 0.254D+00
 Coeff:     -0.359D-04 0.727D+00 0.273D+00
 Gap=     0.059 Goal=   None    Shift=    0.000
 RMSDP=6.17D-06 MaxDP=4.73D-04 DE= 3.75D-05 OVMax= 4.42D-03

 Cycle  11  Pass 1  IDiag  1:
 RMSU=  1.24D-06    CP:  9.98D-01  1.01D+00  4.37D-01
 E= -1694.05013230177     Delta-E=       -0.000046310726 Rises=F Damp=F
 DIIS: error= 1.06D-04 at cycle   4 NSaved=   4.
 NSaved= 4 IEnMin= 4 EnMin= -1694.05013230177     IErMin= 4 ErrMin= 1.06D-04
 ErrMax= 1.06D-04  0.00D+00 EMaxC= 1.00D-01 BMatC= 1.50D-06 BMatP= 8.61D-06
 IDIUse=3 WtCom= 9.99D-01 WtEn= 1.06D-03
 Coeff-Com: -0.357D-02 0.452D+00 0.139D+00 0.413D+00
 Coeff-En:   0.000D+00 0.204D+00 0.000D+00 0.796D+00
 Coeff:     -0.357D-02 0.452D+00 0.139D+00 0.413D+00
 Gap=     0.059 Goal=   None    Shift=    0.000
 RMSDP=1.35D-06 MaxDP=1.14D-04 DE=-4.63D-05 OVMax= 8.99D-04

 Cycle  12  Pass 1  IDiag  1:
 RMSU=  4.75D-07    CP:  9.98D-01  1.01D+00  3.22D-01  7.19D-01
 E= -1694.05013403288     Delta-E=       -0.000001731108 Rises=F Damp=F
 DIIS: error= 1.28D-05 at cycle   5 NSaved=   5.
 NSaved= 5 IEnMin= 5 EnMin= -1694.05013403288     IErMin= 5 ErrMin= 1.28D-05
 ErrMax= 1.28D-05  0.00D+00 EMaxC= 1.00D-01 BMatC= 1.68D-08 BMatP= 1.50D-06
 IDIUse=1 WtCom= 1.00D+00 WtEn= 0.00D+00
 Coeff-Com: -0.247D-02 0.289D+00 0.860D-01 0.283D+00 0.345D+00
 Coeff:     -0.247D-02 0.289D+00 0.860D-01 0.283D+00 0.345D+00
 Gap=     0.059 Goal=   None    Shift=    0.000
 RMSDP=1.64D-07 MaxDP=1.32D-05 DE=-1.73D-06 OVMax= 1.17D-04

 Cycle  13  Pass 1  IDiag  1:
 RMSU=  1.34D-07    CP:  9.98D-01  1.01D+00  3.23D-01  7.49D-01  8.19D-01
 E= -1694.05013405149     Delta-E=       -0.000000018612 Rises=F Damp=F
 DIIS: error= 3.29D-06 at cycle   6 NSaved=   6.
 NSaved= 6 IEnMin= 6 EnMin= -1694.05013405149     IErMin= 6 ErrMin= 3.29D-06
 ErrMax= 3.29D-06  0.00D+00 EMaxC= 1.00D-01 BMatC= 1.01D-09 BMatP= 1.68D-08
 IDIUse=1 WtCom= 1.00D+00 WtEn= 0.00D+00
 Coeff-Com: -0.103D-02 0.117D+00 0.339D-01 0.118D+00 0.220D+00 0.512D+00
 Coeff:     -0.103D-02 0.117D+00 0.339D-01 0.118D+00 0.220D+00 0.512D+00
 Gap=     0.059 Goal=   None    Shift=    0.000
 RMSDP=5.32D-08 MaxDP=3.69D-06 DE=-1.86D-08 OVMax= 3.15D-05

 Cycle  14  Pass 1  IDiag  1:
 RMSU=  3.94D-08    CP:  9.98D-01  1.01D+00  3.23D-01  7.40D-01  8.62D-01
                    CP:  8.01D-01
 E= -1694.05013405262     Delta-E=       -0.000000001133 Rises=F Damp=F
 DIIS: error= 7.61D-07 at cycle   7 NSaved=   7.
 NSaved= 7 IEnMin= 7 EnMin= -1694.05013405262     IErMin= 7 ErrMin= 7.61D-07
 ErrMax= 7.61D-07  0.00D+00 EMaxC= 1.00D-01 BMatC= 1.26D-10 BMatP= 1.01D-09
 IDIUse=1 WtCom= 1.00D+00 WtEn= 0.00D+00
 Coeff-Com: -0.410D-03 0.454D-01 0.128D-01 0.476D-01 0.993D-01 0.327D+00
 Coeff-Com:  0.468D+00
 Coeff:     -0.410D-03 0.454D-01 0.128D-01 0.476D-01 0.993D-01 0.327D+00
 Coeff:      0.468D+00
 Gap=     0.059 Goal=   None    Shift=    0.000
 RMSDP=1.41D-08 MaxDP=5.99D-07 DE=-1.13D-09 OVMax= 4.57D-06

 Cycle  15  Pass 1  IDiag  1:
 RMSU=  9.57D-09    CP:  9.98D-01  1.01D+00  3.23D-01  7.42D-01  8.63D-01
                    CP:  8.25D-01  7.65D-01
 E= -1694.05013405276     Delta-E=       -0.000000000138 Rises=F Damp=F
 DIIS: error= 1.57D-07 at cycle   8 NSaved=   8.
 NSaved= 8 IEnMin= 8 EnMin= -1694.05013405276     IErMin= 8 ErrMin= 1.57D-07
 ErrMax= 1.57D-07  0.00D+00 EMaxC= 1.00D-01 BMatC= 1.31D-11 BMatP= 1.26D-10
 IDIUse=1 WtCom= 1.00D+00 WtEn= 0.00D+00
 Coeff-Com:  0.139D-04-0.206D-02-0.107D-02-0.216D-03 0.199D-03 0.800D-01
 Coeff-Com:  0.245D+00 0.678D+00
 Coeff:      0.139D-04-0.206D-02-0.107D-02-0.216D-03 0.199D-03 0.800D-01
 Coeff:      0.245D+00 0.678D+00
 Gap=     0.059 Goal=   None    Shift=    0.000
 RMSDP=5.69D-09 MaxDP=2.00D-07 DE=-1.38D-10 OVMax= 1.27D-06

 SCF Done:  E(RB3LYP) =  -1694.05013405     A.U. after   15 cycles
            NFock= 15  Conv=0.57D-08     -V/T= 2.0043
 KE= 1.686817292520D+03 PE=-1.336056285602D+04 EE= 5.264759900946D+03
 Leave Link  502 at Wed Sep 27 16:59:36 2023, MaxMem=  3221225472 cpu:            4025.5 elap:             110.1
 (Enter /home/center/opt/aarch64/apps/gaussian16/c01/g16/l601.exe)
 Copying SCF densities to generalized density rwf, IOpCl= 0 IROHF=0.

 **********************************************************************

            Population analysis using the SCF Density.

 **********************************************************************

 Orbital symmetries:
       Occupied  (A") (A') (A') (A") (A") (A') (A") (A') (A') (A")
                 (A') (A') (A") (A') (A") (A') (A") (A') (A") (A')
                 (A") (A') (A") (A') (A") (A') (A') (A") (A') (A")
                 (A") (A') (A") (A') (A') (A") (A') (A") (A') (A')
                 (A") (A') (A") (A') (A') (A") (A') (A") (A') (A')
                 (A") (A") (A') (A') (A") (A') (A') (A") (A') (A")
                 (A') (A") (A") (A") (A') (A') (A') (A') (A") (A")
                 (A') (A") (A") (A") (A') (A') (A") (A') (A') (A')
                 (A') (A") (A") (A') (A") (A") (A') (A") (A') (A')
                 (A") (A') (A") (A") (A') (A') (A") (A') (A") (A')
                 (A") (A') (A') (A') (A') (A') (A") (A") (A") (A')
                 (A') (A") (A') (A") (A") (A") (A") (A') (A") (A')
                 (A') (A') (A') (A") (A") (A') (A') (A") (A') (A")
                 (A") (A") (A') (A') (A") (A') (A") (A') (A') (A')
                 (A") (A") (A") (A") (A') (A')
       Virtual   (A') (A') (A") (A") (A") (A") (A') (A') (A') (A")
                 (A') (A') (A") (A') (A") (A') (A') (A') (A") (A")
                 (A') (A') (A") (A") (A') (A") (A') (A") (A") (A')
                 (A") (A') (A") (A') (A') (A") (A") (A') (A') (A")
                 (A') (A') (A') (A") (A') (A") (A') (A") (A") (A")
                 (A') (A') (A') (A') (A') (A") (A') (A") (A') (A')
                 (A") (A") (A") (A") (A') (A') (A") (A') (A") (A")
                 (A') (A') (A") (A') (A") (A') (A") (A') (A") (A")
                 (A') (A') (A') (A') (A") (A') (A") (A') (A') (A")
                 (A") (A') (A') (A") (A") (A') (A') (A") (A') (A")
                 (A') (A") (A') (A") (A') (A") (A') (A") (A") (A")
                 (A') (A') (A") (A') (A') (A") (A') (A") (A') (A')
                 (A") (A") (A') (A') (A') (A') (A") (A') (A") (A")
                 (A') (A') (A') (A") (A') (A") (A') (A") (A") (A')
                 (A') (A') (A') (A") (A") (A") (A") (A') (A") (A')
                 (A") (A") (A') (A") (A') (A") (A') (A') (A') (A')
                 (A") (A") (A') (A') (A") (A") (A') (A") (A') (A")
                 (A') (A') (A') (A") (A") (A') (A") (A") (A") (A')
                 (A') (A") (A') (A") (A') (A") (A") (A') (A') (A")
                 (A') (A') (A") (A') (A') (A") (A") (A') (A") (A")
                 (A') (A") (A') (A') (A") (A') (A') (A") (A') (A")
                 (A') (A') (A") (A') (A") (A") (A') (A") (A') (A")
                 (A') (A") (A') (A") (A") (A') (A') (A") (A') (A")
                 (A') (A') (A') (A") (A') (A") (A') (A") (A') (A")
                 (A') (A") (A') (A") (A") (A') (A") (A') (A") (A')
                 (A') (A") (A") (A') (A") (A') (A") (A') (A") (A')
                 (A") (A') (A') (A") (A') (A') (A") (A") (A') (A')
                 (A") (A") (A") (A") (A') (A') (A") (A') (A") (A')
                 (A') (A") (A') (A") (A') (A") (A') (A") (A') (A')
                 (A") (A") (A') (A') (A") (A") (A") (A') (A') (A")
                 (A') (A") (A") (A') (A') (A") (A') (A") (A') (A')
                 (A") (A') (A") (A") (A") (A') (A") (A') (A') (A")
                 (A') (A') (A") (A') (A') (A") (A') (A") (A") (A")
                 (A') (A") (A') (A") (A') (A") (A') (A") (A') (A')
                 (A") (A') (A') (A') (A") (A") (A') (A') (A") (A')
                 (A") (A') (A") (A') (A') (A') (A") (A') (A") (A')
                 (A') (A") (A") (A') (A") (A') (A") (A") (A') (A")
                 (A") (A") (A') (A") (A") (A') (A') (A") (A') (A')
                 (A") (A') (A") (A') (A") (A') (A') (A') (A") (A')
                 (A') (A") (A') (A") (A") (A') (A") (A') (A') (A")
                 (A') (A") (A") (A') (A') (A") (A') (A") (A") (A')
                 (A') (A") (A') (A") (A') (A') (A") (A') (A") (A')
                 (A') (A") (A') (A") (A') (A') (A") (A') (A") (A")
                 (A') (A") (A') (A") (A") (A") (A') (A") (A') (A')
                 (A") (A") (A') (A") (A') (A') (A") (A') (A") (A')
                 (A") (A') (A") (A') (A") (A") (A') (A") (A') (A')
                 (A") (A") (A') (A') (A") (A') (A') (A") (A') (A")
                 (A") (A') (A") (A") (A') (A') (A') (A") (A') (A")
                 (A') (A") (A") (A') (A") (A') (A") (A") (A') (A")
                 (A") (A') (A") (A') (A") (A") (A') (A") (A') (A')
                 (A") (A") (A') (A') (A') (A') (A") (A") (A') (A')
                 (A") (A") (A') (A') (A") (A') (A") (A') (A") (A")
                 (A') (A') (A") (A') (A") (A') (A') (A") (A") (A')
                 (A") (A") (A") (A') (A') (A") (A") (A') (A') (A')
                 (A") (A') (A") (A') (A") (A') (A") (A") (A") (A')
                 (A') (A") (A") (A') (A') (A') (A") (A") (A') (A")
                 (A') (A') (A') (A") (A") (A') (A") (A') (A') (A")
                 (A') (A") (A') (A") (A') (A') (A') (A") (A') (A")
                 (A") (A') (A") (A') (A") (A") (A") (A') (A') (A")
                 (A') (A") (A') (A") (A') (A") (A') (A') (A') (A")
                 (A') (A") (A') (A") (A') (A') (A") (A') (A") (A')
                 (A") (A') (A') (A') (A") (A') (A") (A") (A') (A')
                 (A") (A") (A") (A') (A') (A") (A') (A") (A") (A')
                 (A') (A") (A') (A') (A") (A') (A') (A") (A") (A")
                 (A") (A') (A") (A') (A') (A') (A") (A') (A') (A')
                 (A") (A") (A") (A') (A') (A") (A') (A') (A') (A")
                 (A") (A') (A") (A") (A') (A") (A') (A') (A") (A')
                 (A") (A') (A") (A') (A") (A') (A") (A") (A') (A')
                 (A') (A') (A") (A") (A') (A") (A") (A') (A") (A")
                 (A') (A') (A") (A') (A') (A') (A") (A") (A") (A')
                 (A') (A") (A') (A") (A') (A") (A') (A") (A') (A")
                 (A") (A") (A') (A") (A') (A') (A') (A") (A') (A")
                 (A') (A") (A') (A') (A') (A") (A") (A') (A") (A')
                 (A') (A") (A') (A") (A") (A') (A') (A") (A") (A')
                 (A') (A") (A') (A") (A') (A') (A") (A') (A') (A')
                 (A") (A") (A') (A") (A") (A') (A') (A') (A") (A")
                 (A") (A') (A") (A") (A') (A') (A") (A") (A') (A")
                 (A') (A') (A") (A") (A') (A') (A') (A') (A") (A")
                 (A") (A") (A') (A') (A") (A') (A') (A") (A') (A')
                 (A") (A") (A") (A") (A') (A') (A") (A') (A') (A")
                 (A') (A") (A') (A') (A") (A') (A") (A') (A") (A')
                 (A') (A") (A') (A")
 The electronic state is 1-A'.
 Alpha  occ. eigenvalues --  -10.19861 -10.19860 -10.19822 -10.19821 -10.19754
 Alpha  occ. eigenvalues --  -10.19754 -10.19691 -10.19691 -10.18944 -10.18864
 Alpha  occ. eigenvalues --  -10.18864 -10.18840 -10.18797 -10.18797 -10.18724
 Alpha  occ. eigenvalues --  -10.18724 -10.18659 -10.18659 -10.18640 -10.18640
 Alpha  occ. eigenvalues --  -10.18544 -10.18544 -10.17732 -10.17731 -10.17699
 Alpha  occ. eigenvalues --  -10.17699 -10.17607 -10.17607 -10.17532 -10.17532
 Alpha  occ. eigenvalues --  -10.16886 -10.16886 -10.16802 -10.16802 -10.16746
 Alpha  occ. eigenvalues --  -10.16746 -10.16740 -10.16677 -10.16677 -10.16416
 Alpha  occ. eigenvalues --  -10.16380 -10.16380 -10.16320 -10.16320  -0.90334
 Alpha  occ. eigenvalues --   -0.88823  -0.88127  -0.86687  -0.86490  -0.84389
 Alpha  occ. eigenvalues --   -0.83343  -0.81266  -0.80804  -0.79438  -0.79263
 Alpha  occ. eigenvalues --   -0.78580  -0.77378  -0.77106  -0.76924  -0.75154
 Alpha  occ. eigenvalues --   -0.74799  -0.73827  -0.73103  -0.71718  -0.70136
 Alpha  occ. eigenvalues --   -0.68288  -0.67969  -0.66182  -0.63627  -0.63249
 Alpha  occ. eigenvalues --   -0.62000  -0.61559  -0.61233  -0.60834  -0.60168
 Alpha  occ. eigenvalues --   -0.59920  -0.58790  -0.58567  -0.58135  -0.56541
 Alpha  occ. eigenvalues --   -0.53576  -0.53423  -0.53158  -0.51591  -0.51431
 Alpha  occ. eigenvalues --   -0.51163  -0.50487  -0.49368  -0.48521  -0.47993
 Alpha  occ. eigenvalues --   -0.47411  -0.46947  -0.46394  -0.46343  -0.46106
 Alpha  occ. eigenvalues --   -0.45716  -0.44959  -0.44782  -0.44322  -0.43997
 Alpha  occ. eigenvalues --   -0.43382  -0.42819  -0.42655  -0.42412  -0.42352
 Alpha  occ. eigenvalues --   -0.41688  -0.41635  -0.41579  -0.41246  -0.40700
 Alpha  occ. eigenvalues --   -0.40466  -0.40234  -0.40217  -0.39487  -0.39232
 Alpha  occ. eigenvalues --   -0.39013  -0.38447  -0.37591  -0.37242  -0.37162
 Alpha  occ. eigenvalues --   -0.36364  -0.35624  -0.35246  -0.34975  -0.34614
 Alpha  occ. eigenvalues --   -0.34154  -0.33895  -0.33461  -0.33376  -0.32935
 Alpha  occ. eigenvalues --   -0.32912  -0.31832  -0.30592  -0.30397  -0.29881
 Alpha  occ. eigenvalues --   -0.29234  -0.28502  -0.27328  -0.27314  -0.25474
 Alpha  occ. eigenvalues --   -0.25371  -0.23440  -0.23257  -0.21434  -0.18824
 Alpha  occ. eigenvalues --   -0.16677
 Alpha virt. eigenvalues --   -0.10751  -0.08599  -0.05473  -0.03806  -0.03340
 Alpha virt. eigenvalues --   -0.01649  -0.01227   0.00992   0.01047   0.01091
 Alpha virt. eigenvalues --    0.01639   0.03144   0.03499   0.03842   0.03975
 Alpha virt. eigenvalues --    0.03998   0.04945   0.05713   0.05721   0.06122
 Alpha virt. eigenvalues --    0.06190   0.06939   0.07173   0.07386   0.07753
 Alpha virt. eigenvalues --    0.08407   0.08753   0.09391   0.09485   0.10008
 Alpha virt. eigenvalues --    0.10655   0.10956   0.11662   0.12274   0.13046
 Alpha virt. eigenvalues --    0.13222   0.13469   0.13505   0.14096   0.14523
 Alpha virt. eigenvalues --    0.15196   0.16143   0.16534   0.17112   0.17638
 Alpha virt. eigenvalues --    0.17694   0.18042   0.18075   0.19335   0.20187
 Alpha virt. eigenvalues --    0.20809   0.20914   0.22082   0.22222   0.23609
 Alpha virt. eigenvalues --    0.23913   0.24197   0.24803   0.24816   0.25551
 Alpha virt. eigenvalues --    0.25853   0.26368   0.26638   0.26874   0.27307
 Alpha virt. eigenvalues --    0.27397   0.27742   0.28497   0.28674   0.28877
 Alpha virt. eigenvalues --    0.29003   0.29513   0.29600   0.29930   0.30168
 Alpha virt. eigenvalues --    0.30201   0.30423   0.31197   0.31657   0.32222
 Alpha virt. eigenvalues --    0.32316   0.33673   0.33922   0.34335   0.34380
 Alpha virt. eigenvalues --    0.34761   0.35406   0.35413   0.35768   0.35952
 Alpha virt. eigenvalues --    0.36208   0.36440   0.37263   0.37409   0.37640
 Alpha virt. eigenvalues --    0.37771   0.37874   0.38259   0.38893   0.38918
 Alpha virt. eigenvalues --    0.39209   0.39530   0.39540   0.39903   0.39994
 Alpha virt. eigenvalues --    0.40237   0.40540   0.40603   0.41142   0.41488
 Alpha virt. eigenvalues --    0.41605   0.42149   0.42152   0.42252   0.42392
 Alpha virt. eigenvalues --    0.42782   0.43009   0.43165   0.43235   0.43349
 Alpha virt. eigenvalues --    0.43407   0.44426   0.44463   0.45059   0.45167
 Alpha virt. eigenvalues --    0.45254   0.45547   0.45553   0.45673   0.45841
 Alpha virt. eigenvalues --    0.46069   0.46272   0.46471   0.46527   0.46735
 Alpha virt. eigenvalues --    0.46928   0.47064   0.47669   0.48426   0.48644
 Alpha virt. eigenvalues --    0.48788   0.49211   0.49329   0.49415   0.49744
 Alpha virt. eigenvalues --    0.50373   0.50439   0.50702   0.50872   0.51534
 Alpha virt. eigenvalues --    0.51672   0.52034   0.52101   0.52778   0.53127
 Alpha virt. eigenvalues --    0.53755   0.54287   0.54599   0.55218   0.55786
 Alpha virt. eigenvalues --    0.56099   0.56705   0.57494   0.57627   0.57791
 Alpha virt. eigenvalues --    0.58198   0.58394   0.58984   0.59093   0.59459
 Alpha virt. eigenvalues --    0.59532   0.59752   0.60152   0.60663   0.61145
 Alpha virt. eigenvalues --    0.61158   0.61351   0.62026   0.62232   0.62285
 Alpha virt. eigenvalues --    0.62381   0.62823   0.62955   0.63306   0.63418
 Alpha virt. eigenvalues --    0.63546   0.63860   0.63957   0.64239   0.64318
 Alpha virt. eigenvalues --    0.64546   0.64957   0.64960   0.65620   0.66654
 Alpha virt. eigenvalues --    0.67208   0.67972   0.68587   0.68750   0.69094
 Alpha virt. eigenvalues --    0.69570   0.70210   0.70434   0.70544   0.71409
 Alpha virt. eigenvalues --    0.71501   0.72372   0.72581   0.72718   0.73347
 Alpha virt. eigenvalues --    0.73421   0.73536   0.74775   0.74814   0.74936
 Alpha virt. eigenvalues --    0.75865   0.76299   0.76698   0.76771   0.78156
 Alpha virt. eigenvalues --    0.78257   0.78547   0.78722   0.79025   0.79341
 Alpha virt. eigenvalues --    0.79437   0.79906   0.80278   0.80489   0.80516
 Alpha virt. eigenvalues --    0.80715   0.81449   0.81937   0.82497   0.83374
 Alpha virt. eigenvalues --    0.83740   0.84497   0.84781   0.85090   0.85262
 Alpha virt. eigenvalues --    0.85298   0.85541   0.86720   0.86721   0.87636
 Alpha virt. eigenvalues --    0.87968   0.88850   0.89604   0.90178   0.90388
 Alpha virt. eigenvalues --    0.90899   0.90992   0.91805   0.92109   0.92576
 Alpha virt. eigenvalues --    0.93384   0.93583   0.94020   0.94507   0.95278
 Alpha virt. eigenvalues --    0.95395   0.95425   0.96194   0.96407   0.96876
 Alpha virt. eigenvalues --    0.97345   0.97797   0.98307   0.98622   0.99089
 Alpha virt. eigenvalues --    0.99328   0.99806   1.00862   1.01001   1.01024
 Alpha virt. eigenvalues --    1.01700   1.02018   1.02391   1.02538   1.03154
 Alpha virt. eigenvalues --    1.03745   1.03979   1.04251   1.04915   1.05174
 Alpha virt. eigenvalues --    1.05189   1.05895   1.06324   1.06560   1.06660
 Alpha virt. eigenvalues --    1.06729   1.06996   1.07303   1.07749   1.07764
 Alpha virt. eigenvalues --    1.08104   1.08687   1.09124   1.09481   1.09678
 Alpha virt. eigenvalues --    1.09759   1.10790   1.11203   1.11273   1.11798
 Alpha virt. eigenvalues --    1.12026   1.12392   1.12732   1.13284   1.13914
 Alpha virt. eigenvalues --    1.14001   1.14409   1.14566   1.14888   1.15735
 Alpha virt. eigenvalues --    1.15818   1.16621   1.16743   1.17253   1.18287
 Alpha virt. eigenvalues --    1.18442   1.19244   1.19876   1.19995   1.22352
 Alpha virt. eigenvalues --    1.22547   1.23820   1.24039   1.25485   1.26080
 Alpha virt. eigenvalues --    1.27124   1.27347   1.28189   1.28529   1.30425
 Alpha virt. eigenvalues --    1.32126   1.32222   1.32672   1.32799   1.35074
 Alpha virt. eigenvalues --    1.35735   1.35809   1.36293   1.37531   1.38367
 Alpha virt. eigenvalues --    1.39542   1.40090   1.40668   1.40832   1.41815
 Alpha virt. eigenvalues --    1.41908   1.42656   1.42672   1.42854   1.44032
 Alpha virt. eigenvalues --    1.44376   1.44438   1.44853   1.45208   1.45831
 Alpha virt. eigenvalues --    1.46606   1.46736   1.47541   1.47564   1.47934
 Alpha virt. eigenvalues --    1.48250   1.48484   1.48832   1.49530   1.49728
 Alpha virt. eigenvalues --    1.49896   1.50393   1.50398   1.50930   1.51044
 Alpha virt. eigenvalues --    1.51282   1.52055   1.52352   1.52563   1.53732
 Alpha virt. eigenvalues --    1.53791   1.54210   1.54599   1.55071   1.55435
 Alpha virt. eigenvalues --    1.55651   1.55954   1.56357   1.56739   1.56800
 Alpha virt. eigenvalues --    1.57405   1.57750   1.58431   1.58997   1.59873
 Alpha virt. eigenvalues --    1.59886   1.60749   1.61517   1.62046   1.62530
 Alpha virt. eigenvalues --    1.62549   1.62728   1.63375   1.63706   1.64939
 Alpha virt. eigenvalues --    1.65092   1.65718   1.66952   1.68116   1.68203
 Alpha virt. eigenvalues --    1.69180   1.69826   1.69957   1.70722   1.71382
 Alpha virt. eigenvalues --    1.71454   1.71731   1.71903   1.72162   1.72309
 Alpha virt. eigenvalues --    1.72979   1.74053   1.74091   1.74455   1.74575
 Alpha virt. eigenvalues --    1.75003   1.75652   1.75809   1.76600   1.77064
 Alpha virt. eigenvalues --    1.78032   1.79308   1.79335   1.79973   1.80210
 Alpha virt. eigenvalues --    1.80554   1.81517   1.81575   1.81606   1.82143
 Alpha virt. eigenvalues --    1.82509   1.83154   1.83278   1.83532   1.84390
 Alpha virt. eigenvalues --    1.84949   1.85092   1.85572   1.85806   1.86000
 Alpha virt. eigenvalues --    1.86153   1.86663   1.86755   1.87713   1.88574
 Alpha virt. eigenvalues --    1.88660   1.88894   1.88949   1.89313   1.89647
 Alpha virt. eigenvalues --    1.89740   1.90335   1.90538   1.91075   1.91339
 Alpha virt. eigenvalues --    1.91517   1.92139   1.92179   1.92669   1.93030
 Alpha virt. eigenvalues --    1.93634   1.93804   1.94304   1.94947   1.95021
 Alpha virt. eigenvalues --    1.95257   1.95474   1.95812   1.96753   1.97347
 Alpha virt. eigenvalues --    1.97585   1.97811   1.97913   1.99076   2.00010
 Alpha virt. eigenvalues --    2.00376   2.00671   2.01182   2.01365   2.01683
 Alpha virt. eigenvalues --    2.02254   2.02565   2.02678   2.04593   2.05319
 Alpha virt. eigenvalues --    2.06559   2.07785   2.08075   2.08942   2.09598
 Alpha virt. eigenvalues --    2.09912   2.10923   2.11388   2.11605   2.12413
 Alpha virt. eigenvalues --    2.13114   2.13253   2.13711   2.13957   2.15026
 Alpha virt. eigenvalues --    2.16261   2.16420   2.16737   2.17953   2.18525
 Alpha virt. eigenvalues --    2.19631   2.20135   2.20620   2.21788   2.22667
 Alpha virt. eigenvalues --    2.22987   2.23825   2.23866   2.24066   2.24380
 Alpha virt. eigenvalues --    2.24784   2.26051   2.26444   2.26892   2.27113
 Alpha virt. eigenvalues --    2.27560   2.28317   2.28678   2.28766   2.29563
 Alpha virt. eigenvalues --    2.29744   2.31480   2.32381   2.32637   2.34170
 Alpha virt. eigenvalues --    2.34963   2.35063   2.37081   2.37144   2.38530
 Alpha virt. eigenvalues --    2.39409   2.40505   2.40746   2.42331   2.42475
 Alpha virt. eigenvalues --    2.42799   2.43670   2.44892   2.45103   2.46038
 Alpha virt. eigenvalues --    2.46880   2.47057   2.47394   2.47551   2.50506
 Alpha virt. eigenvalues --    2.50624   2.52644   2.52687   2.53485   2.54411
 Alpha virt. eigenvalues --    2.54926   2.55436   2.56166   2.56750   2.57317
 Alpha virt. eigenvalues --    2.57976   2.58691   2.58998   2.59359   2.59408
 Alpha virt. eigenvalues --    2.60060   2.60962   2.61029   2.61205   2.61364
 Alpha virt. eigenvalues --    2.61722   2.62500   2.62773   2.63393   2.63531
 Alpha virt. eigenvalues --    2.64443   2.64644   2.64825   2.65022   2.65267
 Alpha virt. eigenvalues --    2.66706   2.66880   2.67030   2.67367   2.67627
 Alpha virt. eigenvalues --    2.68042   2.68183   2.68740   2.68950   2.68997
 Alpha virt. eigenvalues --    2.69152   2.69209   2.69476   2.70566   2.70983
 Alpha virt. eigenvalues --    2.71289   2.71337   2.71484   2.71845   2.72421
 Alpha virt. eigenvalues --    2.72872   2.73140   2.73919   2.74106   2.74778
 Alpha virt. eigenvalues --    2.74838   2.75472   2.76401   2.76432   2.77045
 Alpha virt. eigenvalues --    2.77546   2.78120   2.78347   2.78960   2.80075
 Alpha virt. eigenvalues --    2.80160   2.80323   2.80889   2.81376   2.82082
 Alpha virt. eigenvalues --    2.82387   2.82916   2.83252   2.83819   2.84421
 Alpha virt. eigenvalues --    2.84792   2.85846   2.86009   2.86502   2.87271
 Alpha virt. eigenvalues --    2.87897   2.88282   2.89731   2.89806   2.90689
 Alpha virt. eigenvalues --    2.91326   2.92094   2.92241   2.92922   2.93368
 Alpha virt. eigenvalues --    2.93672   2.94531   2.95589   2.95837   2.96222
 Alpha virt. eigenvalues --    2.96381   2.96855   2.97495   2.98075   2.98355
 Alpha virt. eigenvalues --    2.98537   3.01017   3.01287   3.04039   3.04108
 Alpha virt. eigenvalues --    3.06555   3.07530   3.09207   3.10007   3.10363
 Alpha virt. eigenvalues --    3.12591   3.12805   3.15757   3.16439   3.16849
 Alpha virt. eigenvalues --    3.17635   3.18499   3.18706   3.19862   3.20577
 Alpha virt. eigenvalues --    3.22176   3.23316   3.23644   3.26080   3.30110
 Alpha virt. eigenvalues --    3.30374   3.31494   3.31924   3.32352   3.34866
 Alpha virt. eigenvalues --    3.35652   3.36071   3.37043   3.37566   3.38028
 Alpha virt. eigenvalues --    3.38279   3.38511   3.39309   3.40359   3.40948
 Alpha virt. eigenvalues --    3.42497   3.42743   3.43750   3.44201   3.45544
 Alpha virt. eigenvalues --    3.46172   3.46759   3.47775   3.50056   3.50193
 Alpha virt. eigenvalues --    3.51176   3.51867   3.52058   3.53345   3.53526
 Alpha virt. eigenvalues --    3.57052   3.57595   3.59297   3.59774   3.61781
 Alpha virt. eigenvalues --    3.62867   3.63629   3.63806   3.65117   3.65813
 Alpha virt. eigenvalues --    3.65869   3.67339   3.68510   3.69151   3.69846
 Alpha virt. eigenvalues --    3.70489   3.70947   3.71347   3.72581   4.00111
 Alpha virt. eigenvalues --    4.00132   4.01185   4.01443   4.03253   4.03255
 Alpha virt. eigenvalues --    4.03521   4.03715   4.15835   4.16303   4.17631
 Alpha virt. eigenvalues --    4.19814   4.20806   4.20840   4.21774   4.21848
 Alpha virt. eigenvalues --    4.22454   4.24770   4.25166   4.26412   4.32076
 Alpha virt. eigenvalues --    4.32145   4.38157   4.42183   4.61738   4.65422
 Alpha virt. eigenvalues --    4.78341   4.79059   4.79767   4.81359   4.81617
 Alpha virt. eigenvalues --    4.82149   4.82464   4.83402   4.85620   4.85908
 Alpha virt. eigenvalues --   23.40617  23.45150  23.55458  23.61014  23.69800
 Alpha virt. eigenvalues --   23.74739  23.78961  23.80153  23.80899  23.82512
 Alpha virt. eigenvalues --   23.83327  23.85717  23.86977  23.88505  23.89730
 Alpha virt. eigenvalues --   23.89845  23.91137  23.92150  23.92895  23.96289
 Alpha virt. eigenvalues --   23.96775  23.98840  23.99019  24.00102  24.08887
 Alpha virt. eigenvalues --   24.09372  24.10145  24.10620  24.11326  24.11942
 Alpha virt. eigenvalues --   24.12500  24.13552  24.13887  24.14337  24.15130
 Alpha virt. eigenvalues --   24.15154  24.15447  24.16081  24.16992  24.17026
 Alpha virt. eigenvalues --   24.19899  24.19948  24.21862  24.21933
          Condensed to atoms (all electrons):
 Mulliken charges:
               1
     1  C   -0.037814
     2  C   -0.037605
     3  C   -0.045985
     4  C   -0.128182
     5  C   -0.081425
     6  C   -0.078110
     7  C    0.004161
     8  C   -0.037643
     9  C   -0.104140
    10  C   -0.022370
    11  H    0.085847
    12  H    0.078834
    13  H    0.079139
    14  H    0.089222
    15  H    0.100123
    16  H    0.098340
    17  C   -0.001153
    18  C   -0.037643
    19  C   -0.108518
    20  C   -0.022370
    21  H    0.077565
    22  H    0.077828
    23  C    0.004161
    24  C   -0.037814
    25  C   -0.104140
    26  C   -0.037605
    27  H    0.078834
    28  H    0.079139
    29  C   -0.045985
    30  C   -0.081425
    31  C   -0.128182
    32  C   -0.078110
    33  H    0.085847
    34  H    0.098340
    35  H    0.100123
    36  H    0.089222
    37  C   -0.006475
    38  C   -0.141133
    39  C   -0.065039
    40  C   -0.036656
    41  C   -0.084733
    42  C   -0.131774
    43  C   -0.034546
    44  C    0.007963
    45  C    0.001729
    46  C   -0.151499
    47  H    0.077395
    48  H    0.068729
    49  H    0.130435
    50  H    0.133489
    51  H    0.080747
    52  H    0.089619
    53  C   -0.038203
    54  C    0.007963
    55  C   -0.004315
    56  C   -0.151499
    57  H    0.067349
    58  H    0.128157
    59  C   -0.034546
    60  C   -0.006475
    61  C    0.001729
    62  C   -0.141133
    63  H    0.068729
    64  H    0.130435
    65  C   -0.065039
    66  C   -0.084733
    67  C   -0.036656
    68  C   -0.131774
    69  H    0.077395
    70  H    0.089619
    71  H    0.080747
    72  H    0.133489
 Sum of Mulliken charges =   0.00000
 Mulliken charges with hydrogens summed into heavy atoms:
               1
     1  C   -0.037814
     2  C   -0.037605
     3  C    0.039863
     4  C   -0.038960
     5  C    0.016915
     6  C    0.022013
     7  C    0.082995
     8  C   -0.037643
     9  C   -0.025001
    10  C   -0.022370
    17  C    0.076412
    18  C   -0.037643
    19  C   -0.030690
    20  C   -0.022370
    23  C    0.082995
    24  C   -0.037814
    25  C   -0.025001
    26  C   -0.037605
    29  C    0.039863
    30  C    0.016915
    31  C   -0.038960
    32  C    0.022013
    37  C   -0.006475
    38  C   -0.141133
    39  C    0.012356
    40  C    0.096834
    41  C    0.004886
    42  C   -0.051028
    43  C    0.034183
    44  C    0.007963
    45  C    0.132164
    46  C   -0.151499
    53  C    0.029146
    54  C    0.007963
    55  C    0.123842
    56  C   -0.151499
    59  C    0.034183
    60  C   -0.006475
    61  C    0.132164
    62  C   -0.141133
    65  C    0.012356
    66  C    0.004886
    67  C    0.096834
    68  C   -0.051028
         Mulliken charges condensed to fragments:
      1     -0.029492
      2      0.029492
 Electronic spatial extent (au):  <R**2>=          24936.8670
 Charge=              0.0000 electrons
 Dipole moment (field-independent basis, Debye):
    X=              0.9765    Y=             -2.0676    Z=              0.0000  Tot=              2.2866
 Quadrupole moment (field-independent basis, Debye-Ang):
   XX=           -245.2025   YY=           -250.4113   ZZ=           -220.0872
   XY=             -0.3714   XZ=              0.0000   YZ=              0.0000
 Traceless Quadrupole moment (field-independent basis, Debye-Ang):
   XX=             -6.6355   YY=            -11.8443   ZZ=             18.4798
   XY=             -0.3714   XZ=              0.0000   YZ=              0.0000
 Octapole moment (field-independent basis, Debye-Ang**2):
  XXX=             53.5098  YYY=            155.3647  ZZZ=              0.0000  XYY=             -8.9115
  XXY=            -68.5264  XXZ=              0.0000  XZZ=             17.4539  YZZ=            -45.5116
  YYZ=              0.0000  XYZ=              0.0000
 Hexadecapole moment (field-independent basis, Debye-Ang**3):
 XXXX=          -1818.0223 YYYY=          -9795.8931 ZZZZ=         -21067.0836 XXXY=           1086.3814
 XXXZ=              0.0000 YYYX=           1099.0143 YYYZ=              0.0000 ZZZX=              0.0000
 ZZZY=              0.0000 XXYY=          -2007.2236 XXZZ=          -4236.5771 YYZZ=          -5470.7705
 XXYZ=              0.0000 YYXZ=              0.0000 ZZXY=            321.2987
 N-N= 4.714935528503D+03 E-N=-1.336056287970D+04  KE= 1.686817292520D+03
 Symmetry A'   KE= 9.135067399623D+02
 Symmetry A"   KE= 7.733105525582D+02
 No NMR shielding tensors so no spin-rotation constants.
 Leave Link  601 at Wed Sep 27 16:59:40 2023, MaxMem=  3221225472 cpu:              52.2 elap:               1.4
 (Enter /home/center/opt/aarch64/apps/gaussian16/c01/g16/l122.exe)
 CPIOFr:  IOpCl= 0 IRwI=-1 IRwCP=  731 ICalc= -1 LCPTot=     1419224 Len1MO=     3708034 IndFrg=     1419224
 CPIOFr:  IOpCl= 0 IRwI=-1 IRwCP=  731 ICalc=  0 LCPTot=     1419224 Len1MO=     3708034 IndFrg=     5127258
 Counterpoise: doing calculation for fragment   1 using the basis set of the full-system, NewBq=T
 Leave Link  122 at Wed Sep 27 16:59:43 2023, MaxMem=  3221225472 cpu:               8.4 elap:               0.4
 (Enter /home/center/opt/aarch64/apps/gaussian16/c01/g16/l301.exe)
 Basis read from rwf:  (5D, 7F)
 No pseudopotential information found on rwf file.
 There are   528 symmetry adapted cartesian basis functions of A'  symmetry.
 There are   476 symmetry adapted cartesian basis functions of A"  symmetry.
 There are   504 symmetry adapted basis functions of A'  symmetry.
 There are   456 symmetry adapted basis functions of A"  symmetry.
   960 basis functions,  1632 primitive gaussians,  1004 cartesian basis functions
    73 alpha electrons       73 beta electrons
       nuclear repulsion energy      1494.3575060019 Hartrees.
 IExCor=  402 DFT=T Ex+Corr=B3LYP ExCW=0 ScaHFX=  0.200000
 ScaDFX=  0.800000  0.720000  1.000000  0.810000 ScalE2=  1.000000  1.000000
 IRadAn=      5 IRanWt=     -1 IRanGd=            0 ICorTp=0 IEmpDi=131
 NAtoms=   72 NActive=   72 NUniq=   40 SFac= 3.24D+00 NAtFMM=   60 NAOKFM=T Big=F
 Integral buffers will be    131072 words long.
 Raffenetti 2 integral format.
 Two-electron integral symmetry is turned on.
 R6Disp:  Grimme-D3 Dispersion energy=       -0.0303938888 Hartrees.
 Nuclear repulsion after empirical dispersion term =     1494.3271121131 Hartrees.
 No density basis found on file    718.
 Leave Link  301 at Wed Sep 27 16:59:45 2023, MaxMem=  3221225472 cpu:               2.5 elap:               0.1
 (Enter /home/center/opt/aarch64/apps/gaussian16/c01/g16/l302.exe)
 NPDir=0 NMtPBC=     1 NCelOv=     1 NCel=       1 NClECP=     1 NCelD=      1
         NCelK=      1 NCelE2=     1 NClLst=     1 CellRange=     0.0.
 One-electron integrals computed using PRISM.
 One-electron integral symmetry used in STVInt
 NBasis=   960 RedAO= T EigKep=  3.65D-05  NBF=   504   456
 NBsUse=   960 1.00D-06 EigRej= -1.00D+00 NBFU=   504   456
 Precomputing XC quadrature grid using
 IXCGrd= 4 IRadAn=           5 IRanWt=          -1 IRanGd=           0 AccXCQ= 0.00D+00.
 Generated NRdTot=       0 NPtTot=           0 NUsed=           0 NTot=          32
 NSgBfM=   991   991   991   991   991 MxSgAt=    72 MxSgA2=    72.
 Leave Link  302 at Wed Sep 27 16:59:49 2023, MaxMem=  3221225472 cpu:              61.5 elap:               1.8
 (Enter /home/center/opt/aarch64/apps/gaussian16/c01/g16/l303.exe)
 DipDrv:  MaxL=1.
 Leave Link  303 at Wed Sep 27 16:59:52 2023, MaxMem=  3221225472 cpu:              12.8 elap:               0.4
 (Enter /home/center/opt/aarch64/apps/gaussian16/c01/g16/l401.exe)
 ExpMin= 1.03D-01 ExpMax= 4.56D+03 ExpMxC= 6.82D+02 IAcc=3 IRadAn=         5 AccDes= 0.00D+00
 Harris functional with IExCor=  402 and IRadAn=       5 diagonalized for initial guess.
 HarFok:  IExCor=  402 AccDes= 0.00D+00 IRadAn=         5 IDoV= 1 UseB2=F ITyADJ=14
 ICtDFT=  3500011 ScaDFX=  1.000000  1.000000  1.000000  1.000000
 FoFCou: FMM=F IPFlag=           0 FMFlag=      100000 FMFlg1=        2000
         NFxFlg=           0 DoJE=T BraDBF=F KetDBF=T FulRan=T
         wScrn=  0.000000 ICntrl=       500 IOpCl=  0 I1Cent=   200000004 NGrid=           0
         NMat0=    1 NMatS0=      1 NMatT0=    0 NMatD0=    1 NMtDS0=    0 NMtDT0=    0
 Petite list used in FoFCou.
 Harris En= -847.067352106286    
 JPrj=0 DoOrth=F DoCkMO=F.
 Initial guess orbital symmetries:
       Occupied  (A") (A') (A') (A") (A") (A') (A") (A') (A") (A')
                 (A") (A') (A') (A') (A") (A') (A") (A') (A") (A')
                 (A') (A") (A') (A") (A') (A") (A') (A') (A") (A')
                 (A") (A") (A') (A') (A") (A") (A') (A") (A') (A')
                 (A') (A") (A") (A") (A') (A') (A") (A') (A') (A")
                 (A') (A") (A") (A') (A') (A") (A') (A") (A') (A")
                 (A") (A') (A') (A") (A') (A") (A') (A") (A') (A')
                 (A") (A") (A')
       Virtual   (A') (A") (A") (A') (A') (A") (A') (A") (A') (A")
                 (A') (A') (A") (A') (A") (A') (A') (A") (A') (A")
                 (A") (A") (A') (A') (A") (A') (A') (A') (A') (A")
                 (A') (A") (A") (A') (A') (A") (A') (A") (A") (A')
                 (A') (A") (A") (A') (A") (A') (A") (A') (A") (A')
                 (A') (A") (A') (A") (A') (A') (A") (A") (A') (A")
                 (A') (A') (A') (A') (A") (A") (A") (A") (A') (A")
                 (A') (A') (A") (A') (A') (A") (A') (A') (A') (A")
                 (A') (A") (A") (A') (A") (A') (A') (A") (A") (A')
                 (A") (A") (A") (A') (A') (A') (A") (A') (A") (A')
                 (A') (A") (A') (A") (A') (A') (A') (A") (A') (A")
                 (A") (A") (A') (A") (A') (A") (A') (A") (A") (A')
                 (A') (A") (A") (A') (A') (A') (A') (A") (A') (A")
                 (A') (A') (A") (A") (A') (A") (A') (A") (A') (A')
                 (A') (A") (A') (A") (A') (A") (A') (A") (A") (A")
                 (A') (A') (A") (A') (A") (A') (A") (A') (A') (A")
                 (A') (A") (A') (A") (A') (A") (A') (A") (A') (A")
                 (A") (A') (A") (A') (A') (A') (A") (A') (A") (A")
                 (A") (A') (A') (A") (A') (A') (A") (A") (A') (A")
                 (A') (A') (A') (A') (A") (A") (A") (A') (A') (A")
                 (A') (A") (A') (A") (A') (A") (A") (A') (A") (A')
                 (A") (A') (A') (A") (A') (A") (A') (A') (A") (A")
                 (A") (A') (A") (A') (A') (A") (A') (A') (A") (A')
                 (A') (A") (A") (A') (A") (A") (A') (A") (A') (A")
                 (A') (A') (A") (A') (A') (A") (A") (A") (A') (A")
                 (A') (A') (A') (A") (A') (A") (A") (A") (A') (A')
                 (A") (A') (A") (A') (A') (A") (A') (A") (A') (A")
                 (A') (A') (A") (A") (A") (A') (A') (A") (A") (A')
                 (A") (A') (A') (A") (A") (A') (A') (A") (A') (A')
                 (A") (A') (A") (A') (A') (A") (A') (A") (A') (A")
                 (A') (A') (A") (A') (A") (A") (A") (A') (A') (A")
                 (A") (A') (A') (A") (A') (A") (A') (A') (A") (A")
                 (A") (A') (A') (A") (A') (A") (A') (A') (A") (A')
                 (A') (A') (A") (A') (A") (A') (A") (A') (A") (A")
                 (A') (A") (A') (A") (A") (A') (A") (A') (A') (A')
                 (A") (A') (A") (A') (A") (A') (A') (A") (A') (A')
                 (A") (A') (A") (A') (A") (A') (A") (A") (A') (A')
                 (A") (A") (A") (A') (A") (A') (A') (A") (A") (A')
                 (A") (A') (A") (A") (A') (A') (A') (A") (A') (A")
                 (A') (A") (A') (A") (A') (A') (A") (A') (A") (A")
                 (A') (A") (A') (A") (A") (A') (A") (A') (A') (A")
                 (A') (A") (A') (A') (A") (A') (A") (A') (A") (A')
                 (A") (A') (A") (A") (A') (A") (A") (A") (A') (A')
                 (A') (A") (A') (A') (A') (A") (A") (A') (A") (A')
                 (A') (A') (A") (A") (A") (A') (A') (A') (A") (A")
                 (A") (A') (A') (A') (A") (A") (A") (A') (A') (A")
                 (A') (A") (A') (A") (A') (A") (A') (A") (A') (A")
                 (A') (A') (A") (A") (A") (A') (A") (A') (A") (A')
                 (A") (A') (A") (A') (A") (A') (A') (A") (A") (A")
                 (A') (A') (A') (A') (A") (A") (A') (A") (A') (A")
                 (A') (A") (A') (A") (A') (A") (A') (A") (A') (A')
                 (A") (A") (A') (A") (A") (A") (A') (A') (A') (A')
                 (A') (A") (A") (A") (A') (A') (A") (A') (A") (A")
                 (A') (A') (A') (A") (A') (A") (A") (A') (A') (A')
                 (A") (A') (A") (A") (A') (A") (A') (A') (A") (A')
                 (A") (A') (A") (A') (A") (A') (A") (A') (A") (A')
                 (A') (A") (A') (A") (A") (A") (A') (A") (A') (A")
                 (A') (A') (A') (A') (A") (A') (A') (A") (A") (A')
                 (A") (A") (A") (A') (A") (A') (A') (A") (A') (A")
                 (A') (A') (A") (A') (A") (A') (A") (A') (A') (A")
                 (A") (A') (A") (A') (A") (A") (A') (A") (A') (A')
                 (A") (A') (A") (A') (A') (A") (A') (A") (A') (A')
                 (A") (A') (A") (A") (A') (A") (A") (A') (A") (A')
                 (A") (A") (A') (A") (A') (A") (A') (A') (A') (A')
                 (A") (A") (A") (A') (A") (A') (A') (A") (A") (A')
                 (A") (A') (A') (A") (A") (A') (A") (A') (A') (A")
                 (A') (A") (A") (A") (A') (A") (A') (A') (A") (A')
                 (A') (A") (A') (A") (A') (A") (A') (A") (A') (A')
                 (A") (A') (A') (A") (A") (A') (A') (A") (A') (A")
                 (A') (A") (A') (A') (A") (A") (A") (A') (A') (A')
[...]
                 (A') (A") (A') (A') (A') (A") (A") (A") (A") (A')
                 (A') (A') (A") (A") (A') (A") (A') (A") (A') (A')
                 (A") (A") (A')
       Virtual   (A') (A") (A") (A') (A') (A") (A') (A') (A') (A")
                 (A") (A') (A") (A') (A") (A') (A") (A") (A') (A")
                 (A') (A') (A") (A') (A") (A') (A') (A') (A') (A")
                 (A") (A") (A") (A') (A') (A") (A') (A") (A') (A")
                 (A') (A') (A') (A") (A') (A") (A") (A') (A') (A")
                 (A") (A') (A') (A") (A') (A") (A") (A") (A') (A")
                 (A') (A') (A') (A') (A') (A") (A') (A') (A") (A")
                 (A") (A') (A') (A') (A") (A') (A") (A") (A") (A')
                 (A') (A") (A') (A") (A") (A') (A") (A') (A') (A')
                 (A') (A') (A") (A") (A") (A") (A') (A") (A') (A")
                 (A') (A') (A') (A") (A") (A') (A') (A") (A') (A")
                 (A') (A") (A") (A") (A') (A') (A") (A') (A') (A")
                 (A') (A") (A") (A') (A') (A") (A') (A") (A') (A")
                 (A") (A') (A') (A') (A') (A") (A") (A") (A') (A")
                 (A') (A") (A') (A") (A') (A') (A") (A") (A') (A")
                 (A') (A") (A') (A") (A') (A') (A") (A') (A") (A")
                 (A') (A") (A') (A') (A") (A") (A') (A") (A') (A")
                 (A') (A') (A") (A') (A') (A") (A") (A') (A') (A')
                 (A") (A') (A") (A") (A") (A") (A') (A") (A') (A')
                 (A") (A') (A") (A') (A') (A') (A") (A') (A") (A')
                 (A") (A") (A') (A') (A") (A") (A') (A') (A") (A')
                 (A') (A') (A') (A") (A") (A") (A") (A') (A') (A")
                 (A') (A") (A") (A') (A") (A') (A") (A') (A") (A')
                 (A") (A') (A') (A") (A') (A") (A") (A') (A') (A")
                 (A") (A') (A') (A") (A") (A') (A") (A") (A") (A')
                 (A') (A") (A') (A') (A") (A') (A') (A") (A') (A")
                 (A") (A') (A") (A') (A') (A") (A") (A") (A') (A')
                 (A") (A') (A') (A") (A") (A") (A') (A") (A') (A')
                 (A") (A') (A") (A') (A") (A') (A') (A') (A") (A')
                 (A") (A") (A') (A') (A") (A") (A') (A") (A') (A")
                 (A') (A') (A") (A") (A') (A') (A") (A') (A') (A')
                 (A") (A") (A') (A") (A') (A") (A') (A") (A') (A')
                 (A') (A") (A") (A") (A') (A") (A') (A') (A') (A")
                 (A") (A') (A") (A') (A') (A") (A') (A") (A") (A')
                 (A') (A") (A') (A") (A") (A') (A') (A") (A') (A")
                 (A') (A") (A') (A") (A') (A") (A") (A') (A') (A")
                 (A') (A") (A') (A') (A") (A") (A') (A") (A') (A')
                 (A") (A') (A") (A') (A') (A") (A') (A") (A') (A")
                 (A") (A') (A") (A') (A") (A') (A") (A') (A') (A")
                 (A") (A') (A") (A') (A') (A") (A") (A') (A') (A")
                 (A') (A") (A') (A") (A') (A') (A")
 The electronic state is 1-A'.
 Alpha  occ. eigenvalues --  -10.18931 -10.18930 -10.18896 -10.18895 -10.18848
 Alpha  occ. eigenvalues --  -10.18848 -10.18813 -10.18813 -10.17956 -10.17955
 Alpha  occ. eigenvalues --  -10.17920 -10.17920 -10.17919 -10.17919 -10.17875
 Alpha  occ. eigenvalues --  -10.17875 -10.17863 -10.17863 -10.17808 -10.17808
 Alpha  occ. eigenvalues --  -10.17781 -10.17781  -0.89340  -0.87865  -0.85549
 Alpha  occ. eigenvalues --   -0.82415  -0.79820  -0.78521  -0.78314  -0.75991
 Alpha  occ. eigenvalues --   -0.74255  -0.72901  -0.69196  -0.67344  -0.62728
 Alpha  occ. eigenvalues --   -0.62370  -0.61108  -0.59964  -0.59301  -0.57689
 Alpha  occ. eigenvalues --   -0.52709  -0.52573  -0.52293  -0.49654  -0.48513
 Alpha  occ. eigenvalues --   -0.47160  -0.46110  -0.45590  -0.45476  -0.43928
 Alpha  occ. eigenvalues --   -0.43182  -0.42578  -0.41808  -0.41572  -0.41386
 Alpha  occ. eigenvalues --   -0.40692  -0.40405  -0.39579  -0.38193  -0.36732
 Alpha  occ. eigenvalues --   -0.36341  -0.35550  -0.34094  -0.33809  -0.33058
 Alpha  occ. eigenvalues --   -0.32930  -0.31612  -0.29665  -0.28406  -0.26623
 Alpha  occ. eigenvalues --   -0.24364  -0.22582  -0.17855
 Alpha virt. eigenvalues --   -0.09755  -0.04464  -0.02747  -0.00147   0.02073
 Alpha virt. eigenvalues --    0.02370   0.03189   0.04746   0.04859   0.04871
 Alpha virt. eigenvalues --    0.06161   0.06575   0.07968   0.08162   0.08303
 Alpha virt. eigenvalues --    0.09607   0.10049   0.11524   0.11533   0.13796
 Alpha virt. eigenvalues --    0.14111   0.14670   0.18092   0.18194   0.18832
 Alpha virt. eigenvalues --    0.19391   0.22815   0.23002   0.24379   0.24942
 Alpha virt. eigenvalues --    0.25581   0.27528   0.27575   0.28012   0.28228
 Alpha virt. eigenvalues --    0.28947   0.29389   0.30158   0.30759   0.31175
 Alpha virt. eigenvalues --    0.32897   0.34528   0.36420   0.36484   0.37134
 Alpha virt. eigenvalues --    0.37503   0.37629   0.37651   0.38116   0.38643
 Alpha virt. eigenvalues --    0.39094   0.39439   0.39739   0.40236   0.40435
 Alpha virt. eigenvalues --    0.41918   0.41926   0.41940   0.42289   0.42318
 Alpha virt. eigenvalues --    0.42643   0.43748   0.44233   0.44835   0.45295
 Alpha virt. eigenvalues --    0.45683   0.45924   0.45953   0.46379   0.47165
 Alpha virt. eigenvalues --    0.47805   0.47809   0.47978   0.48073   0.48231
 Alpha virt. eigenvalues --    0.48568   0.49414   0.49572   0.51377   0.51846
 Alpha virt. eigenvalues --    0.52370   0.53118   0.53671   0.55998   0.57923
 Alpha virt. eigenvalues --    0.57955   0.59048   0.59201   0.60433   0.60585
 Alpha virt. eigenvalues --    0.60693   0.61101   0.61690   0.62105   0.62173
 Alpha virt. eigenvalues --    0.63432   0.63481   0.64458   0.64535   0.65533
 Alpha virt. eigenvalues --    0.66693   0.66910   0.67680   0.67724   0.70658
 Alpha virt. eigenvalues --    0.71305   0.71405   0.71494   0.72803   0.73989
 Alpha virt. eigenvalues --    0.75405   0.75894   0.76289   0.77801   0.77809
 Alpha virt. eigenvalues --    0.78943   0.79160   0.79723   0.81162   0.81509
 Alpha virt. eigenvalues --    0.82881   0.83001   0.84383   0.84585   0.84713
 Alpha virt. eigenvalues --    0.88087   0.89711   0.89765   0.91536   0.92083
 Alpha virt. eigenvalues --    0.92578   0.93749   0.95806   0.96107   0.96442
 Alpha virt. eigenvalues --    0.96590   0.96905   0.98547   1.00356   1.01118
 Alpha virt. eigenvalues --    1.02686   1.03027   1.03354   1.04405   1.05244
 Alpha virt. eigenvalues --    1.05439   1.05525   1.05950   1.07395   1.07547
 Alpha virt. eigenvalues --    1.07686   1.08438   1.10005   1.10036   1.12070
 Alpha virt. eigenvalues --    1.13223   1.13544   1.13650   1.14526   1.15341
 Alpha virt. eigenvalues --    1.17432   1.18332   1.19657   1.20432   1.23014
 Alpha virt. eigenvalues --    1.23618   1.27884   1.28234   1.30579   1.32076
 Alpha virt. eigenvalues --    1.32743   1.34942   1.37641   1.39236   1.39896
 Alpha virt. eigenvalues --    1.39942   1.40725   1.42751   1.43476   1.43554
 Alpha virt. eigenvalues --    1.45057   1.46086   1.47119   1.47538   1.48841
 Alpha virt. eigenvalues --    1.49280   1.49417   1.50258   1.50674   1.52268
 Alpha virt. eigenvalues --    1.52650   1.53402   1.54331   1.54372   1.54781
 Alpha virt. eigenvalues --    1.54807   1.57107   1.57715   1.58569   1.59882
 Alpha virt. eigenvalues --    1.60106   1.62692   1.63242   1.64856   1.66641
 Alpha virt. eigenvalues --    1.69292   1.69605   1.69709   1.70649   1.71804
 Alpha virt. eigenvalues --    1.72459   1.72619   1.73075   1.73096   1.73680
 Alpha virt. eigenvalues --    1.77494   1.78519   1.79157   1.79419   1.80511
 Alpha virt. eigenvalues --    1.81616   1.81887   1.82058   1.83581   1.84039
 Alpha virt. eigenvalues --    1.85487   1.87392   1.87456   1.87577   1.87728
 Alpha virt. eigenvalues --    1.88131   1.88613   1.90743   1.91387   1.92190
 Alpha virt. eigenvalues --    1.92193   1.92572   1.92670   1.93517   1.93938
 Alpha virt. eigenvalues --    1.94544   1.95483   1.97262   1.99429   2.00088
 Alpha virt. eigenvalues --    2.00602   2.01362   2.03019   2.05757   2.08293
 Alpha virt. eigenvalues --    2.09111   2.09256   2.09792   2.12192   2.14098
 Alpha virt. eigenvalues --    2.15528   2.15584   2.17200   2.19751   2.20833
 Alpha virt. eigenvalues --    2.21576   2.22525   2.23381   2.24503   2.26441
 Alpha virt. eigenvalues --    2.26972   2.27242   2.27719   2.28046   2.29391
 Alpha virt. eigenvalues --    2.33301   2.35725   2.39155   2.39384   2.40817
 Alpha virt. eigenvalues --    2.42649   2.43076   2.45776   2.45994   2.46870
 Alpha virt. eigenvalues --    2.51623   2.51954   2.53354   2.53485   2.55138
 Alpha virt. eigenvalues --    2.56159   2.58701   2.58838   2.59764   2.59776
 Alpha virt. eigenvalues --    2.60682   2.61147   2.61719   2.62222   2.63349
 Alpha virt. eigenvalues --    2.63999   2.64478   2.66054   2.66794   2.67121
 Alpha virt. eigenvalues --    2.67374   2.68356   2.68872   2.68876   2.69372
 Alpha virt. eigenvalues --    2.69557   2.69907   2.70083   2.70281   2.73482
 Alpha virt. eigenvalues --    2.74771   2.74836   2.76066   2.77101   2.77577
 Alpha virt. eigenvalues --    2.78232   2.78455   2.78850   2.80822   2.82359
 Alpha virt. eigenvalues --    2.85535   2.85993   2.86737   2.87294   2.90966
 Alpha virt. eigenvalues --    2.91783   2.92195   2.93676   2.95232   2.95887
 Alpha virt. eigenvalues --    2.99270   2.99858   3.03165   3.05604   3.06852
 Alpha virt. eigenvalues --    3.07371   3.15988   3.16029   3.16647   3.19843
 Alpha virt. eigenvalues --    3.20017   3.23601   3.29134   3.29680   3.31610
 Alpha virt. eigenvalues --    3.35095   3.35458   3.35677   3.35858   3.38023
 Alpha virt. eigenvalues --    3.39887   3.41413   3.44960   3.45362   3.47993
 Alpha virt. eigenvalues --    3.48278   3.50401   3.53073   3.57439   3.58649
 Alpha virt. eigenvalues --    3.61466   3.62620   3.63208   3.63698   3.65910
 Alpha virt. eigenvalues --    3.67534   3.67678   4.00384   4.00442   4.01859
 Alpha virt. eigenvalues --    4.02182   4.16133   4.16678   4.17360   4.21240
 Alpha virt. eigenvalues --    4.22396   4.22517   4.25488   4.38492   4.62290
 Alpha virt. eigenvalues --    4.79179   4.79740   4.80562   4.82562   4.83014
 Alpha virt. eigenvalues --   23.39176  23.54541  23.69085  23.77378  23.80419
 Alpha virt. eigenvalues --   23.81537  23.86099  23.89067  23.89154  23.92210
 Alpha virt. eigenvalues --   23.97563  23.98365  24.09049  24.09932  24.10529
 Alpha virt. eigenvalues --   24.12220  24.13779  24.14375  24.15775  24.15810
 Alpha virt. eigenvalues --   24.20452  24.20497
          Condensed to atoms (all electrons):
 Mulliken charges:
               1
     1  C    0.000000
     2  C    0.000000
     3  C    0.000000
     4  C    0.000000
     5  C    0.000000
     6  C    0.000000
     7  C    0.000000
     8  C    0.000000
     9  C    0.000000
    10  C    0.000000
    11  H    0.000000
    12  H    0.000000
    13  H    0.000000
    14  H    0.000000
    15  H    0.000000
    16  H    0.000000
    17  C    0.000000
    18  C    0.000000
    19  C    0.000000
    20  C    0.000000
    21  H    0.000000
    22  H    0.000000
    23  C    0.000000
    24  C    0.000000
    25  C    0.000000
    26  C    0.000000
    27  H    0.000000
    28  H    0.000000
    29  C    0.000000
    30  C    0.000000
    31  C    0.000000
    32  C    0.000000
    33  H    0.000000
    34  H    0.000000
    35  H    0.000000
    36  H    0.000000
    37  C   -0.059168
    38  C   -0.059168
    39  C   -0.055977
    40  C   -0.055977
    41  C   -0.092198
    42  C   -0.092198
    43  C   -0.016525
    44  C   -0.054498
    45  C   -0.016525
    46  C   -0.054498
    47  H    0.082122
    48  H    0.074853
    49  H    0.074853
    50  H    0.082122
    51  H    0.094847
    52  H    0.094847
    53  C   -0.020341
    54  C   -0.054498
    55  C   -0.020341
    56  C   -0.054498
    57  H    0.073428
    58  H    0.073428
    59  C   -0.016525
    60  C   -0.059168
    61  C   -0.016525
    62  C   -0.059168
    63  H    0.074853
    64  H    0.074853
    65  C   -0.055977
    66  C   -0.092198
    67  C   -0.055977
    68  C   -0.092198
    69  H    0.082122
    70  H    0.094847
    71  H    0.094847
    72  H    0.082122
 Sum of Mulliken charges =   0.00000
 Mulliken charges with hydrogens summed into heavy atoms:
               1
     1  C    0.000000
     2  C    0.000000
     3  C    0.000000
     4  C    0.000000
     5  C    0.000000
     6  C    0.000000
     7  C    0.000000
     8  C    0.000000
     9  C    0.000000
    10  C    0.000000
    17  C    0.000000
    18  C    0.000000
    19  C    0.000000
    20  C    0.000000
    23  C    0.000000
    24  C    0.000000
    25  C    0.000000
    26  C    0.000000
    29  C    0.000000
    30  C    0.000000
    31  C    0.000000
    32  C    0.000000
    37  C   -0.059168
    38  C   -0.059168
    39  C    0.026144
    40  C    0.026144
    41  C    0.002649
    42  C    0.002649
    43  C    0.058328
    44  C   -0.054498
    45  C    0.058328
    46  C   -0.054498
    53  C    0.053087
    54  C   -0.054498
    55  C    0.053087
    56  C   -0.054498
    59  C    0.058328
    60  C   -0.059168
    61  C    0.058328
    62  C   -0.059168
    65  C    0.026144
    66  C    0.002649
    67  C    0.026144
    68  C    0.002649
         Mulliken charges condensed to fragments:
      1      0.000000
      2      0.000000
 Electronic spatial extent (au):  <R**2>=          18715.5297
 Charge=              0.0000 electrons
 Dipole moment (field-independent basis, Debye):
    X=              0.0000    Y=              0.0000    Z=              0.0000  Tot=              0.0000
 Quadrupole moment (field-independent basis, Debye-Ang):
   XX=           -136.3921   YY=           -110.7480   ZZ=           -109.0115
   XY=              0.0000   XZ=              0.0000   YZ=              0.0000
 Traceless Quadrupole moment (field-independent basis, Debye-Ang):
   XX=            -17.6749   YY=              7.9692   ZZ=              9.7057
   XY=              0.0000   XZ=              0.0000   YZ=              0.0000
 Octapole moment (field-independent basis, Debye-Ang**2):
  XXX=           1229.6578  YYY=            998.4612  ZZZ=              0.0000  XYY=            332.8204
  XXY=            409.8859  XXZ=              0.0000  XZZ=            327.6017  YZZ=            327.6017
  YYZ=              0.0000  XYZ=              0.0000
 Hexadecapole moment (field-independent basis, Debye-Ang**3):
 XXXX=          -7545.1486 YYYY=          -7117.8757 ZZZZ=         -10461.4324 XXXY=          -3695.3723
 XXXZ=              0.0000 YYYX=          -3000.5795 YYYZ=              0.0000 ZZZX=              0.0000
 ZZZY=              0.0000 XXYY=          -2488.3993 XXZZ=          -3192.4419 YYZZ=          -2953.7243
 XXYZ=              0.0000 YYXZ=              0.0000 ZZXY=           -984.5099
 N-N= 1.494327111324D+03 E-N=-4.953709174165D+03  KE= 8.433374904716D+02
 Symmetry A'   KE= 4.567052305305D+02
 Symmetry A"   KE= 3.866322599410D+02
 No NMR shielding tensors so no spin-rotation constants.
 Leave Link  601 at Wed Sep 27 17:17:30 2023, MaxMem=  3221225472 cpu:              19.0 elap:               0.5
 (Enter /home/center/opt/aarch64/apps/gaussian16/c01/g16/l122.exe)
 CPIOFr:  IOpCl= 0 IRwI=-1 IRwCP=  731 ICalc=  4 LCPTot=     1419224 Len1MO=     3708034 IndFrg=    19959394
 Restoring MOs from calculation   1 to rwf.
 CPIOFr:  IOpCl= 0 IRwI=-2 IRwCP=  731 ICalc=  0 LCPTot=     1419224 Len1MO=     3708034 IndFrg=     5127258
 Counterpoise corrected energy =   -1694.040972368312
                   BSSE energy =       0.000002575162
              sum of fragments =   -1694.039683044256
           complexation energy =      -0.81 kcal/mole (raw)
           complexation energy =      -0.81 kcal/mole (corrected)
 Leave Link  122 at Wed Sep 27 17:17:32 2023, MaxMem=  3221225472 cpu:               8.3 elap:               0.4
 (Enter /home/center/opt/aarch64/apps/gaussian16/c01/g16/l9999.exe)

 Test job not archived.
 1\1\GINC-FX0484\SP\RB3LYP\6-311G(d,p)\C44H28\Z40145W\27-Sep-2023\0\\#P
  TEST b3lyp/6-311G** EmpiricalDispersion=GD3 counterpoise=2\\pentacene
 _A1=0_A2=0_A3=45_p2\\0,1\C,0,-0.5039478476,0.5239478476,-3.6612755801\
 C,0,0.5239480325,-0.5039480325,-3.6612755629\C,0,-0.9861248463,1.00612
 48463,-4.9235927708\C,0,1.0061250889,-0.9861250889,-4.9235926697\C,0,-
 0.4963213507,0.5163213507,-6.096356521\C,0,0.5163216812,-0.4963216812,
 -6.0963564796\C,0,-0.9844684311,1.0044684311,-2.4533174875\C,0,-0.5044
 88426,0.524488426,-1.2140288145\C,0,1.0044685359,-0.9844685359,-2.4533
 173917\C,0,0.5244885437,-0.5044885437,-1.2140288362\H,0,-1.7533559667,
 1.7733559667,-4.9232600459\H,0,-1.7521866813,1.7721866813,-2.453928581
 5\H,0,1.7721859268,-1.7521859268,-2.4539284818\H,0,1.7733558421,-1.753
 3558421,-4.9232597785\H,0,0.8905568758,-0.8705568758,-7.0425276922\H,0
 ,-0.8705565046,0.8905565046,-7.042527775\C,0,-0.9848184961,1.004818496
 1,0.0099998782\C,0,-0.5044883957,0.5244883957,1.2340295553\C,0,1.00481
 85643,-0.9848185643,0.0099998696\C,0,0.5244885146,-0.5044885146,1.2340
 295261\H,0,-1.7524699697,1.7724699697,0.0099999205\H,0,1.772468921,-1.
 752468921,0.0099999641\C,0,-0.9844683048,1.0044683048,2.4733171385\C,0
 ,-0.5039477114,0.5239477114,3.681276331\C,0,1.0044684211,-0.9844684211
 ,2.4733170835\C,0,0.5239479079,-0.5039479079,3.6812763217\H,0,-1.75218
 65527,1.7721865527,2.4739285326\H,0,1.7721858092,-1.7521858092,2.47392
 83796\C,0,-0.9861245177,1.0061245177,4.9435920588\C,0,-0.4963209372,0.
 5163209372,6.116356633\C,0,1.0061247659,-0.9861247659,4.9435919377\C,0
 ,0.5163212637,-0.4963212637,6.1163566075\H,0,-1.7533556504,1.773355650
 4,4.9432601504\H,0,-0.8705567426,0.8905567426,7.0625274368\H,0,0.89055
 70967,-0.8705570967,7.0625272142\H,0,1.7733555414,-1.7533555414,4.9432
 599297\C,0,7.9960521524,0.5239478476,-3.6612755801\C,0,9.0239480325,-0
 .5039480325,-3.6612755629\C,0,7.5138751537,1.0061248463,-4.9235927708\
 C,0,9.5061250889,-0.9861250889,-4.9235926697\C,0,8.0036786493,0.516321
 3507,-6.096356521\C,0,9.0163216812,-0.4963216812,-6.0963564796\C,0,7.5
 155315689,1.0044684311,-2.4533174875\C,0,7.995511574,0.524488426,-1.21
 40288145\C,0,9.5044685359,-0.9844685359,-2.4533173917\C,0,9.0244885437
 ,-0.5044885437,-1.2140288362\H,0,6.7466440333,1.7733559667,-4.92326004
 59\H,0,6.7478133187,1.7721866813,-2.4539285815\H,0,10.2721859268,-1.75
 21859268,-2.4539284818\H,0,10.2733558421,-1.7533558421,-4.9232597785\H
 ,0,9.3905568758,-0.8705568758,-7.0425276922\H,0,7.6294434954,0.8905565
 046,-7.042527775\C,0,7.5151815039,1.0048184961,0.0099998782\C,0,7.9955
 116043,0.5244883957,1.2340295553\C,0,9.5048185643,-0.9848185643,0.0099
 998696\C,0,9.0244885146,-0.5044885146,1.2340295261\H,0,6.7475300303,1.
 7724699697,0.0099999205\H,0,10.272468921,-1.752468921,0.0099999641\C,0
 ,7.5155316952,1.0044683048,2.4733171385\C,0,7.9960522886,0.5239477114,
 3.681276331\C,0,9.5044684211,-0.9844684211,2.4733170835\C,0,9.02394790
 79,-0.5039479079,3.6812763217\H,0,6.7478134473,1.7721865527,2.47392853
 26\H,0,10.2721858092,-1.7521858092,2.4739283796\C,0,7.5138754823,1.006
 1245177,4.9435920588\C,0,8.0036790628,0.5163209372,6.116356633\C,0,9.5
 061247659,-0.9861247659,4.9435919377\C,0,9.0163212637,-0.4963212637,6.
 1163566075\H,0,6.7466443496,1.7733556504,4.9432601504\H,0,7.6294432574
 ,0.8905567426,7.0625274368\H,0,9.3905570967,-0.8705570967,7.0625272142
 \H,0,10.2733555414,-1.7533555414,4.9432599297\\Version=Fujitsu-Arm-G16
 RevC.01\State=1-A'\HF=-847.0198415\RMSD=3.183e-09\Dipole=0.0000158,-0.
 0000156,0.\Quadrupole=-7.7985625,-6.6016502,14.4002128,-18.4082435,0.,
 0.\PG=CS [SG(C4H4),X(C40H24)]\\@


 BE LIKE A POSTAGE STAMP.  STICK TO ONE THING UNTIL
 YOU GET THERE -- JOSH BILLINGS
 Job cpu time:       0 days  2 hours 40 minutes 11.8 seconds.
 Elapsed time:       0 days  0 hours  4 minutes 14.7 seconds.
 File lengths (MBytes):  RWF=    718 Int=      0 D2E=      0 Chk=    208 Scr=      1
 Normal termination of Gaussian 16 at Wed Sep 27 17:17:38 2023.
