 Entering Gaussian System, Link 0=g16
 Initial command:
 /home/center/opt/aarch64/apps/gaussian16/c01/g16/l1.exe "/data/tmp/Gtmp/1006973/Gau-49.inp" -scrdir="/data/tmp/Gtmp/1006973/"
 Entering Link 1 = /home/center/opt/aarch64/apps/gaussian16/c01/g16/l1.exe PID=        50.
  
 Copyright (c) 1988-2019, Gaussian, Inc.  All Rights Reserved.
  
 This is part of the Gaussian(R) 16 program.  It is based on
 the Gaussian(R) 09 system (copyright 2009, Gaussian, Inc.),
 the Gaussian(R) 03 system (copyright 2003, Gaussian, Inc.),
 the Gaussian(R) 98 system (copyright 1998, Gaussian, Inc.),
 the Gaussian(R) 94 system (copyright 1995, Gaussian, Inc.),
 the Gaussian 92(TM) system (copyright 1992, Gaussian, Inc.),
 the Gaussian 90(TM) system (copyright 1990, Gaussian, Inc.),
 the Gaussian 88(TM) system (copyright 1988, Gaussian, Inc.),
 the Gaussian 86(TM) system (copyright 1986, Carnegie Mellon
 University), and the Gaussian 82(TM) system (copyright 1983,
 Carnegie Mellon University). Gaussian is a federally registered
 trademark of Gaussian, Inc.
  
 This software contains proprietary and confidential information,
 including trade secrets, belonging to Gaussian, Inc.
  
 This software is provided under written license and may be
 used, copied, transmitted, or stored only in accord with that
 written license.
  
 The following legend is applicable only to US Government
 contracts under FAR:
  
                    RESTRICTED RIGHTS LEGEND
  
 Use, reproduction and disclosure by the US Government is
 subject to restrictions as set forth in subparagraphs (a)
 and (c) of the Commercial Computer Software - Restricted
 Rights clause in FAR 52.227-19.
  
 Gaussian, Inc.
 340 Quinnipiac St., Bldg. 40, Wallingford CT 06492
  
  
 ---------------------------------------------------------------
 Warning -- This program may not be used in any manner that
 competes with the business of Gaussian, Inc. or will provide
 assistance to any competitor of Gaussian, Inc.  The licensee
 of this program is prohibited from giving any competitor of
 Gaussian, Inc. access to this program.  By using this program,
 the user acknowledges that Gaussian, Inc. is engaged in the
 business of creating and licensing software in the field of
 computational chemistry and represents and warrants to the
 licensee that it is not a competitor of Gaussian, Inc. and that
 it will not use this program in any manner prohibited above.
 ---------------------------------------------------------------
  

 Cite this work as:
 Gaussian 16, Revision C.01,
 M. J. Frisch, G. W. Trucks, H. B. Schlegel, G. E. Scuseria, 
 M. A. Robb, J. R. Cheeseman, G. Scalmani, V. Barone, 
 G. A. Petersson, H. Nakatsuji, X. Li, M. Caricato, A. V. Marenich, 
 J. Bloino, B. G. Janesko, R. Gomperts, B. Mennucci, H. P. Hratchian, 
 J. V. Ortiz, A. F. Izmaylov, J. L. Sonnenberg, D. Williams-Young, 
 F. Ding, F. Lipparini, F. Egidi, J. Goings, B. Peng, A. Petrone, 
 T. Henderson, D. Ranasinghe, V. G. Zakrzewski, J. Gao, N. Rega, 
 G. Zheng, W. Liang, M. Hada, M. Ehara, K. Toyota, R. Fukuda, 
 J. Hasegawa, M. Ishida, T. Nakajima, Y. Honda, O. Kitao, H. Nakai, 
 T. Vreven, K. Throssell, J. A. Montgomery, Jr., J. E. Peralta, 
 F. Ogliaro, M. J. Bearpark, J. J. Heyd, E. N. Brothers, K. N. Kudin, 
 V. N. Staroverov, T. A. Keith, R. Kobayashi, J. Normand, 
 K. Raghavachari, A. P. Rendell, J. C. Burant, S. S. Iyengar, 
 J. Tomasi, M. Cossi, J. M. Millam, M. Klene, C. Adamo, R. Cammi, 
 J. W. Ochterski, R. L. Martin, K. Morokuma, O. Farkas, 
 J. B. Foresman, and D. J. Fox, Gaussian, Inc., Wallingford CT, 2019.
 
 ************************************************
 Gaussian 16:  Fujitsu-Arm-G16RevC.01  3-Jul-2019
                   27-Sep-2023 
 ************************************************
 %mem=24GB
 %nproc=42
 Will use up to   42 processors via shared memory.
 -------------------------------------------------------------
 #P TEST b3lyp/6-311G** EmpiricalDispersion=GD3 counterpoise=2
 -------------------------------------------------------------
 1/38=1,62=2,172=1/1;
 2/12=2,17=6,18=5,40=1/2;
 1/38=1,53=2,62=2,63=1/22;
 3/5=4,6=6,7=101,11=2,25=1,30=1,74=-5,124=31/1,2,3;
 4//1;
 5/5=2,38=5/2;
 6/7=2,8=2,9=2,10=2,28=1/1;
 1/53=2,62=2,63=1/22;
 3/5=7,6=11,7=101,11=2,25=1,30=1,74=-5,82=7,124=31/1,2,3;
 4//1;
 5/5=2,38=5/2;
 6/7=2,8=2,9=2,10=2,28=1/1;
 1/53=2,62=2,63=1/22(-4);
 99/5=1,9=1/99;
 Leave Link    1 at Wed Sep 27 16:57:13 2023, MaxMem=  3221225472 cpu:               6.5 elap:               0.2
 (Enter /home/center/opt/aarch64/apps/gaussian16/c01/g16/l101.exe)
 ----------------------------
 pentacene_A1=0_A2=0_A3=45_t1
 ----------------------------
 Symbolic Z-matrix:
 Charge =  0 Multiplicity = 1 in supermolecule
 Charge =  0 Multiplicity = 1 in fragment      1.
 Charge =  0 Multiplicity = 1 in fragment      2.
 C(Fragment=1)        -0.50395   0.52395  -3.66128 
 C(Fragment=1)         0.52395  -0.50395  -3.66128 
 C(Fragment=1)        -0.98612   1.00612  -4.92359 
 C(Fragment=1)         1.00613  -0.98613  -4.92359 
 C(Fragment=1)        -0.49632   0.51632  -6.09636 
 C(Fragment=1)         0.51632  -0.49632  -6.09636 
 C(Fragment=1)        -0.98447   1.00447  -2.45332 
 C(Fragment=1)        -0.50449   0.52449  -1.21403 
 C(Fragment=1)         1.00447  -0.98447  -2.45332 
 C(Fragment=1)         0.52449  -0.50449  -1.21403 
 H(Fragment=1)        -1.75336   1.77336  -4.92326 
 H(Fragment=1)        -1.75219   1.77219  -2.45393 
 H(Fragment=1)         1.77219  -1.75219  -2.45393 
 H(Fragment=1)         1.77336  -1.75336  -4.92326 
 H(Fragment=1)         0.89056  -0.87056  -7.04253 
 H(Fragment=1)        -0.87056   0.89056  -7.04253 
 C(Fragment=1)        -0.98482   1.00482   0.01 
 C(Fragment=1)        -0.50449   0.52449   1.23403 
 C(Fragment=1)         1.00482  -0.98482   0.01 
 C(Fragment=1)         0.52449  -0.50449   1.23403 
 H(Fragment=1)        -1.75247   1.77247   0.01 
 H(Fragment=1)         1.77247  -1.75247   0.01 
 C(Fragment=1)        -0.98447   1.00447   2.47332 
 C(Fragment=1)        -0.50395   0.52395   3.68128 
 C(Fragment=1)         1.00447  -0.98447   2.47332 
 C(Fragment=1)         0.52395  -0.50395   3.68128 
 H(Fragment=1)        -1.75219   1.77219   2.47393 
 H(Fragment=1)         1.77219  -1.75219   2.47393 
 C(Fragment=1)        -0.98612   1.00612   4.94359 
 C(Fragment=1)        -0.49632   0.51632   6.11636 
 C(Fragment=1)         1.00612  -0.98612   4.94359 
 C(Fragment=1)         0.51632  -0.49632   6.11636 
 H(Fragment=1)        -1.75336   1.77336   4.94326 
 H(Fragment=1)        -0.87056   0.89056   7.06253 
 H(Fragment=1)         0.89056  -0.87056   7.06253 
 H(Fragment=1)         1.77336  -1.75336   4.94326 
 C(Fragment=2)         4.52395   3.52395  -3.66128 
 C(Fragment=2)         3.49605   2.49605  -3.66128 
 C(Fragment=2)         5.00612   4.00612  -4.92359 
 C(Fragment=2)         3.01387   2.01387  -4.92359 
 C(Fragment=2)         4.51632   3.51632  -6.09636 
 C(Fragment=2)         3.50368   2.50368  -6.09636 
 C(Fragment=2)         5.00447   4.00447  -2.45332 
 C(Fragment=2)         4.52449   3.52449  -1.21403 
 C(Fragment=2)         3.01553   2.01553  -2.45332 
 C(Fragment=2)         3.49551   2.49551  -1.21403 
 H(Fragment=2)         5.77336   4.77336  -4.92326 
 H(Fragment=2)         5.77219   4.77219  -2.45393 
 H(Fragment=2)         2.24781   1.24781  -2.45393 
 H(Fragment=2)         2.24664   1.24664  -4.92326 
 H(Fragment=2)         3.12944   2.12944  -7.04253 
 H(Fragment=2)         4.89056   3.89056  -7.04253 
 C(Fragment=2)         5.00482   4.00482   0.01 
 C(Fragment=2)         4.52449   3.52449   1.23403 
 C(Fragment=2)         3.01518   2.01518   0.01 
 C(Fragment=2)         3.49551   2.49551   1.23403 
 H(Fragment=2)         5.77247   4.77247   0.01 
 H(Fragment=2)         2.24753   1.24753   0.01 
 C(Fragment=2)         5.00447   4.00447   2.47332 
 C(Fragment=2)         4.52395   3.52395   3.68128 
 C(Fragment=2)         3.01553   2.01553   2.47332 
 C(Fragment=2)         3.49605   2.49605   3.68128 
 H(Fragment=2)         5.77219   4.77219   2.47393 
 H(Fragment=2)         2.24781   1.24781   2.47393 
 C(Fragment=2)         5.00612   4.00612   4.94359 
 C(Fragment=2)         4.51632   3.51632   6.11636 
 C(Fragment=2)         3.01388   2.01388   4.94359 
 C(Fragment=2)         3.50368   2.50368   6.11636 
 H(Fragment=2)         5.77336   4.77336   4.94326 
 H(Fragment=2)         4.89056   3.89056   7.06253 
 H(Fragment=2)         3.12944   2.12944   7.06253 
 H(Fragment=2)         2.24664   1.24664   4.94326 
 
 ITRead=  0  0  0  0  0  0  0  0  0  0  0  0  0  0  0  0  0  0  0  0
 ITRead=  0  0  0  0  0  0  0  0  0  0  0  0  0  0  0  0  0  0  0  0
 ITRead=  0  0  0  0  0  0  0  0  0  0  0  0  0  0  0  0  0  0  0  0
 ITRead=  0  0  0  0  0  0  0  0  0  0  0  0
 MicOpt= -1 -1 -1 -1 -1 -1 -1 -1 -1 -1 -1 -1 -1 -1 -1 -1 -1 -1 -1 -1
 MicOpt= -1 -1 -1 -1 -1 -1 -1 -1 -1 -1 -1 -1 -1 -1 -1 -1 -1 -1 -1 -1
 MicOpt= -1 -1 -1 -1 -1 -1 -1 -1 -1 -1 -1 -1 -1 -1 -1 -1 -1 -1 -1 -1
 MicOpt= -1 -1 -1 -1 -1 -1 -1 -1 -1 -1 -1 -1
 NAtoms=     72 NQM=       72 NQMF=       0 NMMI=      0 NMMIF=      0
                NMic=       0 NMicF=      0.
                    Isotopes and Nuclear Properties:
 (Nuclear quadrupole moments (NQMom) in fm**2, nuclear magnetic moments (NMagM)
  in nuclear magnetons)

  Atom         1           2           3           4           5           6           7           8           9          10
 IAtWgt=          12          12          12          12          12          12          12          12          12          12
 AtmWgt=  12.0000000  12.0000000  12.0000000  12.0000000  12.0000000  12.0000000  12.0000000  12.0000000  12.0000000  12.0000000
 NucSpn=           0           0           0           0           0           0           0           0           0           0
 AtZEff=   0.0000000   0.0000000   0.0000000   0.0000000   0.0000000   0.0000000   0.0000000   0.0000000   0.0000000   0.0000000
 NQMom=    0.0000000   0.0000000   0.0000000   0.0000000   0.0000000   0.0000000   0.0000000   0.0000000   0.0000000   0.0000000
 NMagM=    0.0000000   0.0000000   0.0000000   0.0000000   0.0000000   0.0000000   0.0000000   0.0000000   0.0000000   0.0000000
 AtZNuc=   6.0000000   6.0000000   6.0000000   6.0000000   6.0000000   6.0000000   6.0000000   6.0000000   6.0000000   6.0000000

  Atom        11          12          13          14          15          16          17          18          19          20
 IAtWgt=           1           1           1           1           1           1          12          12          12          12
 AtmWgt=   1.0078250   1.0078250   1.0078250   1.0078250   1.0078250   1.0078250  12.0000000  12.0000000  12.0000000  12.0000000
 NucSpn=           1           1           1           1           1           1           0           0           0           0
 AtZEff=   0.0000000   0.0000000   0.0000000   0.0000000   0.0000000   0.0000000   0.0000000   0.0000000   0.0000000   0.0000000
 NQMom=    0.0000000   0.0000000   0.0000000   0.0000000   0.0000000   0.0000000   0.0000000   0.0000000   0.0000000   0.0000000
 NMagM=    2.7928460   2.7928460   2.7928460   2.7928460   2.7928460   2.7928460   0.0000000   0.0000000   0.0000000   0.0000000
 AtZNuc=   1.0000000   1.0000000   1.0000000   1.0000000   1.0000000   1.0000000   6.0000000   6.0000000   6.0000000   6.0000000

  Atom        21          22          23          24          25          26          27          28          29          30
 IAtWgt=           1           1          12          12          12          12           1           1          12          12
 AtmWgt=   1.0078250   1.0078250  12.0000000  12.0000000  12.0000000  12.0000000   1.0078250   1.0078250  12.0000000  12.0000000
 NucSpn=           1           1           0           0           0           0           1           1           0           0
 AtZEff=   0.0000000   0.0000000   0.0000000   0.0000000   0.0000000   0.0000000   0.0000000   0.0000000   0.0000000   0.0000000
 NQMom=    0.0000000   0.0000000   0.0000000   0.0000000   0.0000000   0.0000000   0.0000000   0.0000000   0.0000000   0.0000000
 NMagM=    2.7928460   2.7928460   0.0000000   0.0000000   0.0000000   0.0000000   2.7928460   2.7928460   0.0000000   0.0000000
 AtZNuc=   1.0000000   1.0000000   6.0000000   6.0000000   6.0000000   6.0000000   1.0000000   1.0000000   6.0000000   6.0000000

  Atom        31          32          33          34          35          36          37          38          39          40
 IAtWgt=          12          12           1           1           1           1          12          12          12          12
 AtmWgt=  12.0000000  12.0000000   1.0078250   1.0078250   1.0078250   1.0078250  12.0000000  12.0000000  12.0000000  12.0000000
 NucSpn=           0           0           1           1           1           1           0           0           0           0
 AtZEff=   0.0000000   0.0000000   0.0000000   0.0000000   0.0000000   0.0000000   0.0000000   0.0000000   0.0000000   0.0000000
 NQMom=    0.0000000   0.0000000   0.0000000   0.0000000   0.0000000   0.0000000   0.0000000   0.0000000   0.0000000   0.0000000
 NMagM=    0.0000000   0.0000000   2.7928460   2.7928460   2.7928460   2.7928460   0.0000000   0.0000000   0.0000000   0.0000000
 AtZNuc=   6.0000000   6.0000000   1.0000000   1.0000000   1.0000000   1.0000000   6.0000000   6.0000000   6.0000000   6.0000000

  Atom        41          42          43          44          45          46          47          48          49          50
 IAtWgt=          12          12          12          12          12          12           1           1           1           1
 AtmWgt=  12.0000000  12.0000000  12.0000000  12.0000000  12.0000000  12.0000000   1.0078250   1.0078250   1.0078250   1.0078250
 NucSpn=           0           0           0           0           0           0           1           1           1           1
 AtZEff=   0.0000000   0.0000000   0.0000000   0.0000000   0.0000000   0.0000000   0.0000000   0.0000000   0.0000000   0.0000000
 NQMom=    0.0000000   0.0000000   0.0000000   0.0000000   0.0000000   0.0000000   0.0000000   0.0000000   0.0000000   0.0000000
 NMagM=    0.0000000   0.0000000   0.0000000   0.0000000   0.0000000   0.0000000   2.7928460   2.7928460   2.7928460   2.7928460
 AtZNuc=   6.0000000   6.0000000   6.0000000   6.0000000   6.0000000   6.0000000   1.0000000   1.0000000   1.0000000   1.0000000

  Atom        51          52          53          54          55          56          57          58          59          60
 IAtWgt=           1           1          12          12          12          12           1           1          12          12
 AtmWgt=   1.0078250   1.0078250  12.0000000  12.0000000  12.0000000  12.0000000   1.0078250   1.0078250  12.0000000  12.0000000
 NucSpn=           1           1           0           0           0           0           1           1           0           0
 AtZEff=   0.0000000   0.0000000   0.0000000   0.0000000   0.0000000   0.0000000   0.0000000   0.0000000   0.0000000   0.0000000
 NQMom=    0.0000000   0.0000000   0.0000000   0.0000000   0.0000000   0.0000000   0.0000000   0.0000000   0.0000000   0.0000000
 NMagM=    2.7928460   2.7928460   0.0000000   0.0000000   0.0000000   0.0000000   2.7928460   2.7928460   0.0000000   0.0000000
 AtZNuc=   1.0000000   1.0000000   6.0000000   6.0000000   6.0000000   6.0000000   1.0000000   1.0000000   6.0000000   6.0000000

  Atom        61          62          63          64          65          66          67          68          69          70
 IAtWgt=          12          12           1           1          12          12          12          12           1           1
 AtmWgt=  12.0000000  12.0000000   1.0078250   1.0078250  12.0000000  12.0000000  12.0000000  12.0000000   1.0078250   1.0078250
 NucSpn=           0           0           1           1           0           0           0           0           1           1
 AtZEff=   0.0000000   0.0000000   0.0000000   0.0000000   0.0000000   0.0000000   0.0000000   0.0000000   0.0000000   0.0000000
 NQMom=    0.0000000   0.0000000   0.0000000   0.0000000   0.0000000   0.0000000   0.0000000   0.0000000   0.0000000   0.0000000
 NMagM=    0.0000000   0.0000000   2.7928460   2.7928460   0.0000000   0.0000000   0.0000000   0.0000000   2.7928460   2.7928460
 AtZNuc=   6.0000000   6.0000000   1.0000000   1.0000000   6.0000000   6.0000000   6.0000000   6.0000000   1.0000000   1.0000000

  Atom        71          72
 IAtWgt=           1           1
 AtmWgt=   1.0078250   1.0078250
 NucSpn=           1           1
 AtZEff=   0.0000000   0.0000000
 NQMom=    0.0000000   0.0000000
 NMagM=    2.7928460   2.7928460
 AtZNuc=   1.0000000   1.0000000
 Leave Link  101 at Wed Sep 27 16:57:15 2023, MaxMem=  3221225472 cpu:               2.5 elap:               0.1
 (Enter /home/center/opt/aarch64/apps/gaussian16/c01/g16/l202.exe)
 Stoichiometry    C44H28
 Framework group  CS[SG(C4H4),X(C40H24)]
 Deg. of freedom   109
 Full point group                 CS      NOp   2
 Largest Abelian subgroup         CS      NOp   2
 Largest concise Abelian subgroup CS      NOp   2
                         Standard orientation:                         
 ---------------------------------------------------------------------
 Center     Atomic      Atomic             Coordinates (Angstroms)
 Number     Number       Type             X           Y           Z
 ---------------------------------------------------------------------
      1          6           0        1.080385   -2.474874    3.671276
      2          6           0       -0.373279   -2.474874    3.671276
      3          6           0        1.762287   -2.474874    4.933593
      4          6           0       -1.055180   -2.474874    4.933593
      5          6           0        1.069600   -2.474874    6.106357
      6          6           0       -0.362494   -2.474874    6.106357
      7          6           0        1.759944   -2.474874    2.463318
      8          6           0        1.081150   -2.474874    1.224029
      9          6           0       -1.052837   -2.474874    2.463317
     10          6           0       -0.374043   -2.474874    1.224029
     11          1           0        2.847315   -2.474874    4.933260
     12          1           0        2.845662   -2.474874    2.463929
     13          1           0       -2.138554   -2.474874    2.463929
     14          1           0       -2.140208   -2.474874    4.933260
     15          1           0       -0.891742   -2.474874    7.052528
     16          1           0        1.598848   -2.474874    7.052528
     17          6           0        1.760439   -2.474874    0.000000
     18          6           0        1.081150   -2.474874   -1.224029
     19          6           0       -1.053332   -2.474874    0.000000
     20          6           0       -0.374043   -2.474874   -1.224029
     21          1           0        2.846062   -2.474874    0.000000
     22          1           0       -2.138954   -2.474874    0.000000
     23          6           0        1.759944   -2.474874   -2.463318
     24          6           0        1.080385   -2.474874   -3.671276
     25          6           0       -1.052837   -2.474874   -2.463317
     26          6           0       -0.373279   -2.474874   -3.671276
     27          1           0        2.845662   -2.474874   -2.463929
     28          1           0       -2.138554   -2.474874   -2.463929
     29          6           0        1.762287   -2.474874   -4.933593
     30          6           0        1.069600   -2.474874   -6.106357
     31          6           0       -1.055180   -2.474874   -4.933593
     32          6           0       -0.362494   -2.474874   -6.106357
     33          1           0        2.847315   -2.474874   -4.933260
     34          1           0        1.598848   -2.474874   -7.052528
     35          1           0       -0.891742   -2.474874   -7.052528
     36          1           0       -2.140208   -2.474874   -4.933260
     37          6           0       -0.353553    3.201706    3.671276
     38          6           0       -0.353553    1.748042    3.671276
     39          6           0       -0.353553    3.883607    4.933593
     40          6           0       -0.353553    1.066140    4.933593
     41          6           0       -0.353553    3.190920    6.106357
     42          6           0       -0.353553    1.758827    6.106357
     43          6           0       -0.353553    3.881265    2.463318
     44          6           0       -0.353553    3.202470    1.224029
     45          6           0       -0.353553    1.068483    2.463317
     46          6           0       -0.353553    1.747277    1.224029
     47          1           0       -0.353553    4.968636    4.933260
     48          1           0       -0.353553    4.966982    2.463929
     49          1           0       -0.353553   -0.017233    2.463929
     50          1           0       -0.353553   -0.018888    4.933260
     51          1           0       -0.353553    1.229578    7.052528
     52          1           0       -0.353553    3.720169    7.052528
     53          6           0       -0.353553    3.881760    0.000000
     54          6           0       -0.353553    3.202470   -1.224029
     55          6           0       -0.353553    1.067988    0.000000
     56          6           0       -0.353553    1.747277   -1.224029
     57          1           0       -0.353553    4.967383    0.000000
     58          1           0       -0.353553   -0.017634    0.000000
     59          6           0       -0.353553    3.881265   -2.463318
     60          6           0       -0.353553    3.201706   -3.671276
     61          6           0       -0.353553    1.068483   -2.463317
     62          6           0       -0.353553    1.748042   -3.671276
     63          1           0       -0.353553    4.966982   -2.463929
     64          1           0       -0.353553   -0.017233   -2.463929
     65          6           0       -0.353553    3.883607   -4.933593
     66          6           0       -0.353553    3.190920   -6.106357
     67          6           0       -0.353553    1.066140   -4.933593
     68          6           0       -0.353553    1.758827   -6.106357
     69          1           0       -0.353553    4.968636   -4.933260
     70          1           0       -0.353553    3.720169   -7.052528
     71          1           0       -0.353553    1.229578   -7.052528
     72          1           0       -0.353553   -0.018888   -4.933260
 ---------------------------------------------------------------------
 Rotational constants (GHZ):           0.1191849           0.0563744           0.0406218
 Leave Link  202 at Wed Sep 27 16:57:18 2023, MaxMem=  3221225472 cpu:               0.7 elap:               0.0
 (Enter /home/center/opt/aarch64/apps/gaussian16/c01/g16/l122.exe)
 Counterpoise: doing full-system calculation.
 Leave Link  122 at Wed Sep 27 16:57:20 2023, MaxMem=  3221225472 cpu:               0.2 elap:               0.0
 (Enter /home/center/opt/aarch64/apps/gaussian16/c01/g16/l301.exe)
 Standard basis: 6-311G(d,p) (5D, 7F)
 Ernie: Thresh=  0.10000D-02 Tol=  0.10000D-05 Strict=F.
 There are   528 symmetry adapted cartesian basis functions of A'  symmetry.
 There are   476 symmetry adapted cartesian basis functions of A"  symmetry.
 There are   504 symmetry adapted basis functions of A'  symmetry.
 There are   456 symmetry adapted basis functions of A"  symmetry.
   960 basis functions,  1632 primitive gaussians,  1004 cartesian basis functions
   146 alpha electrons      146 beta electrons
       nuclear repulsion energy      4697.6779069677 Hartrees.
 IExCor=  402 DFT=T Ex+Corr=B3LYP ExCW=0 ScaHFX=  0.200000
 ScaDFX=  0.800000  0.720000  1.000000  0.810000 ScalE2=  1.000000  1.000000
 IRadAn=      5 IRanWt=     -1 IRanGd=            0 ICorTp=0 IEmpDi=131
 NAtoms=   72 NActive=   72 NUniq=   40 SFac= 3.24D+00 NAtFMM=   60 NAOKFM=T Big=F
 Integral buffers will be    131072 words long.
 Raffenetti 2 integral format.
 Two-electron integral symmetry is turned on.
 R6Disp:  Grimme-D3 Dispersion energy=       -0.0874716103 Hartrees.
 Nuclear repulsion after empirical dispersion term =     4697.5904353574 Hartrees.
 Leave Link  301 at Wed Sep 27 16:57:22 2023, MaxMem=  3221225472 cpu:               2.0 elap:               0.1
 (Enter /home/center/opt/aarch64/apps/gaussian16/c01/g16/l302.exe)
 NPDir=0 NMtPBC=     1 NCelOv=     1 NCel=       1 NClECP=     1 NCelD=      1
         NCelK=      1 NCelE2=     1 NClLst=     1 CellRange=     0.0.
 One-electron integrals computed using PRISM.
 One-electron integral symmetry used in STVInt
 NBasis=   960 RedAO= T EigKep=  3.71D-05  NBF=   504   456
 NBsUse=   960 1.00D-06 EigRej= -1.00D+00 NBFU=   504   456
 Precomputing XC quadrature grid using
 IXCGrd= 4 IRadAn=           5 IRanWt=          -1 IRanGd=           0 AccXCQ= 0.00D+00.
 Generated NRdTot=       0 NPtTot=           0 NUsed=           0 NTot=          32
 NSgBfM=   991   991   991   991   991 MxSgAt=    72 MxSgA2=    72.
 Leave Link  302 at Wed Sep 27 16:57:27 2023, MaxMem=  3221225472 cpu:              64.4 elap:               2.0
 (Enter /home/center/opt/aarch64/apps/gaussian16/c01/g16/l303.exe)
 DipDrv:  MaxL=1.
 Leave Link  303 at Wed Sep 27 16:57:29 2023, MaxMem=  3221225472 cpu:              13.8 elap:               0.4
 (Enter /home/center/opt/aarch64/apps/gaussian16/c01/g16/l401.exe)
 ExpMin= 1.03D-01 ExpMax= 4.56D+03 ExpMxC= 6.82D+02 IAcc=3 IRadAn=         5 AccDes= 0.00D+00
 Harris functional with IExCor=  402 and IRadAn=       5 diagonalized for initial guess.
 HarFok:  IExCor=  402 AccDes= 0.00D+00 IRadAn=         5 IDoV= 1 UseB2=F ITyADJ=14
 ICtDFT=  3500011 ScaDFX=  1.000000  1.000000  1.000000  1.000000
 FoFCou: FMM=F IPFlag=           0 FMFlag=      100000 FMFlg1=        2000
         NFxFlg=           0 DoJE=T BraDBF=F KetDBF=T FulRan=T
         wScrn=  0.000000 ICntrl=       500 IOpCl=  0 I1Cent=   200000004 NGrid=           0
         NMat0=    1 NMatS0=      1 NMatT0=    0 NMatD0=    1 NMtDS0=    0 NMtDT0=    0
 Petite list used in FoFCou.
 Harris En= -1694.13679075132    
 JPrj=0 DoOrth=F DoCkMO=F.
 Initial guess orbital symmetries:
       Occupied  (A") (A') (A") (A') (A") (A') (A') (A") (A") (A')
                 (A") (A') (A") (A') (A") (A') (A") (A') (A') (A")
                 (A') (A") (A') (A") (A') (A') (A') (A') (A") (A')
                 (A") (A") (A') (A') (A") (A') (A") (A') (A") (A')
                 (A") (A') (A') (A") (A') (A') (A") (A") (A') (A')
                 (A") (A") (A') (A') (A') (A') (A") (A") (A') (A')
                 (A") (A") (A") (A") (A') (A') (A') (A') (A") (A")
                 (A") (A") (A') (A') (A") (A") (A') (A') (A') (A')
                 (A') (A') (A") (A") (A") (A") (A") (A') (A") (A')
                 (A') (A') (A") (A") (A') (A') (A') (A') (A") (A")
                 (A') (A') (A") (A") (A") (A") (A') (A') (A') (A')
                 (A") (A") (A') (A') (A") (A") (A') (A') (A") (A")
                 (A") (A") (A') (A') (A') (A') (A") (A") (A') (A')
                 (A") (A") (A') (A') (A") (A") (A') (A') (A') (A')
                 (A") (A") (A") (A") (A') (A')
       Virtual   (A') (A') (A") (A") (A") (A") (A') (A') (A') (A')
                 (A") (A") (A') (A') (A") (A") (A') (A") (A') (A')
                 (A') (A') (A") (A') (A") (A') (A") (A') (A") (A')
                 (A") (A") (A') (A") (A') (A") (A') (A") (A') (A")
                 (A') (A') (A") (A') (A") (A') (A") (A') (A') (A')
                 (A') (A") (A') (A") (A') (A') (A") (A") (A') (A')
                 (A") (A") (A") (A") (A') (A') (A") (A') (A") (A")
                 (A') (A") (A') (A') (A") (A') (A") (A") (A') (A")
                 (A') (A') (A') (A") (A') (A") (A') (A') (A') (A")
                 (A") (A') (A") (A') (A") (A") (A') (A") (A') (A")
                 (A') (A') (A') (A") (A") (A') (A") (A') (A") (A')
                 (A') (A") (A') (A') (A") (A') (A") (A") (A') (A')
                 (A") (A') (A') (A") (A") (A') (A") (A') (A") (A')
                 (A") (A') (A") (A') (A") (A") (A') (A') (A") (A')
                 (A") (A') (A") (A") (A') (A') (A') (A") (A') (A')
                 (A') (A") (A') (A") (A") (A') (A") (A') (A") (A")
                 (A') (A') (A") (A') (A") (A') (A") (A') (A') (A")
                 (A') (A") (A') (A") (A') (A') (A") (A') (A") (A")
                 (A") (A') (A') (A') (A") (A") (A') (A') (A") (A')
                 (A') (A") (A') (A") (A") (A') (A') (A") (A') (A")
                 (A") (A') (A") (A') (A') (A') (A") (A') (A") (A")
                 (A') (A') (A") (A") (A') (A") (A") (A') (A") (A')
                 (A') (A") (A") (A') (A') (A") (A") (A') (A') (A')
                 (A") (A') (A') (A') (A") (A') (A") (A") (A') (A")
                 (A") (A') (A") (A') (A') (A") (A') (A") (A') (A")
                 (A') (A") (A") (A') (A') (A") (A') (A") (A') (A")
                 (A") (A') (A") (A') (A") (A') (A") (A") (A') (A")
                 (A') (A') (A") (A') (A") (A') (A") (A") (A') (A')
                 (A') (A") (A') (A") (A') (A") (A') (A") (A") (A')
                 (A') (A") (A") (A') (A') (A") (A") (A") (A") (A')
                 (A') (A') (A') (A') (A') (A") (A") (A") (A') (A")
                 (A") (A') (A") (A') (A") (A') (A') (A') (A') (A")
                 (A") (A') (A") (A') (A') (A") (A") (A') (A") (A")
                 (A') (A") (A') (A") (A') (A') (A") (A") (A') (A")
                 (A') (A') (A') (A") (A') (A") (A') (A") (A") (A')
                 (A') (A") (A') (A') (A") (A') (A") (A') (A') (A')
                 (A") (A') (A') (A") (A') (A") (A") (A") (A") (A")
                 (A') (A") (A') (A") (A") (A") (A') (A') (A') (A')
                 (A") (A') (A") (A') (A') (A') (A") (A') (A') (A")
                 (A") (A') (A') (A") (A") (A') (A') (A") (A") (A')
                 (A") (A") (A') (A') (A") (A') (A") (A') (A") (A')
                 (A') (A') (A") (A") (A') (A') (A') (A") (A") (A')
                 (A') (A') (A") (A') (A") (A') (A') (A") (A") (A')
                 (A") (A") (A') (A") (A") (A') (A") (A") (A') (A")
                 (A") (A') (A") (A') (A') (A') (A") (A") (A') (A")
                 (A') (A') (A') (A") (A") (A') (A") (A") (A') (A')
                 (A") (A') (A') (A") (A") (A") (A') (A') (A") (A')
                 (A") (A') (A") (A') (A") (A') (A") (A') (A") (A')
                 (A') (A") (A') (A') (A") (A') (A") (A") (A") (A")
                 (A') (A") (A') (A") (A") (A") (A") (A') (A') (A')
                 (A") (A') (A') (A") (A') (A") (A') (A') (A") (A")
                 (A') (A') (A') (A") (A") (A') (A") (A') (A") (A")
                 (A') (A') (A") (A') (A") (A') (A") (A') (A") (A')
                 (A") (A') (A") (A") (A') (A') (A') (A") (A") (A')
                 (A") (A") (A') (A') (A') (A") (A") (A") (A') (A")
                 (A') (A") (A') (A") (A') (A") (A') (A") (A') (A')
                 (A") (A') (A") (A') (A") (A') (A") (A') (A') (A")
                 (A") (A") (A') (A') (A") (A') (A') (A") (A") (A')
                 (A') (A') (A") (A') (A") (A') (A') (A') (A") (A')
                 (A") (A') (A") (A') (A") (A') (A") (A") (A') (A")
                 (A') (A') (A") (A') (A") (A') (A") (A") (A') (A')
                 (A") (A') (A') (A") (A') (A") (A') (A') (A") (A")
                 (A') (A") (A') (A") (A") (A') (A") (A") (A') (A')
                 (A') (A') (A") (A') (A') (A") (A') (A") (A") (A')
                 (A") (A") (A") (A') (A') (A") (A') (A") (A') (A")
                 (A') (A') (A') (A") (A') (A') (A") (A') (A") (A')
                 (A') (A") (A") (A") (A') (A") (A') (A') (A') (A")
                 (A") (A') (A") (A') (A') (A") (A") (A") (A') (A')
                 (A") (A') (A') (A") (A') (A") (A') (A") (A") (A")
                 (A') (A") (A') (A') (A") (A') (A') (A") (A') (A")
                 (A") (A') (A") (A') (A") (A') (A') (A") (A") (A')
                 (A") (A") (A') (A') (A") (A') (A') (A") (A') (A")
                 (A') (A") (A') (A') (A") (A') (A") (A') (A") (A')
                 (A') (A") (A') (A") (A") (A') (A') (A") (A') (A")
                 (A') (A") (A') (A") (A') (A') (A") (A') (A') (A')
                 (A") (A') (A") (A") (A') (A") (A') (A') (A") (A")
                 (A") (A') (A") (A') (A") (A") (A') (A") (A') (A")
                 (A') (A') (A") (A") (A') (A') (A') (A') (A") (A")
                 (A") (A") (A') (A') (A") (A') (A") (A') (A') (A')
                 (A") (A") (A") (A") (A') (A') (A') (A') (A") (A")
                 (A') (A') (A") (A") (A') (A') (A") (A') (A") (A')
                 (A') (A") (A') (A")
 The electronic state of the initial guess is 1-A'.
 Leave Link  401 at Wed Sep 27 16:57:34 2023, MaxMem=  3221225472 cpu:             105.7 elap:               2.6
 (Enter /home/center/opt/aarch64/apps/gaussian16/c01/g16/l502.exe)
 Integral symmetry usage will be decided dynamically.
 Closed shell SCF:
 Using DIIS extrapolation, IDIIS=  1040.
 NGot=  3221225472 LenX=  3219153746 LenY=  3218144726
 Requested convergence on RMS density matrix=1.00D-08 within 128 cycles.
 Requested convergence on MAX density matrix=1.00D-06.
 Requested convergence on             energy=1.00D-06.
 No special actions if energy rises.
 Fock matrices will be formed incrementally for  20 cycles.
 Integral accuracy reduced to 1.0D-05 until final iterations.

 Cycle   1  Pass 0  IDiag  1:
 FoFJK:  IHMeth= 1 ICntrl=       0 DoSepK=F KAlg= 0 I1Cent=           0 FoldK=F
 IRaf= 570000000 NMat=       1 IRICut=       1 DoRegI=T DoRafI=F ISym2E= 1 IDoP0=0 IntGTp=1.
 FoFCou: FMM=F IPFlag=           0 FMFlag=      100000 FMFlg1=        2000
         NFxFlg=           0 DoJE=F BraDBF=F KetDBF=F FulRan=T
         wScrn=  0.000000 ICntrl=         0 IOpCl=  0 I1Cent=           0 NGrid=           0
         NMat0=    1 NMatS0=      1 NMatT0=    0 NMatD0=    1 NMtDS0=    0 NMtDT0=    0
 Petite list used in FoFCou.
 E= -1693.18001699376    
 DIIS: error= 4.47D-02 at cycle   1 NSaved=   1.
 NSaved= 1 IEnMin= 1 EnMin= -1693.18001699376     IErMin= 1 ErrMin= 4.47D-02
 ErrMax= 4.47D-02  0.00D+00 EMaxC= 1.00D-01 BMatC= 8.95D-01 BMatP= 8.95D-01
 IDIUse=3 WtCom= 5.53D-01 WtEn= 4.47D-01
 Coeff-Com:  0.100D+01
 Coeff-En:   0.100D+01
 Coeff:      0.100D+01
 Gap=     0.059 Goal=   None    Shift=    0.000
 GapD=    0.059 DampG=0.500 DampE=0.500 DampFc=0.2500 IDamp=-1.
 Damping current iteration by 2.50D-01
 RMSDP=1.73D-03 MaxDP=8.40D-02              OVMax= 1.54D-01

 Cycle   2  Pass 0  IDiag  1:
 RMSU=  4.18D-04    CP:  9.82D-01
 E= -1693.48646518465     Delta-E=       -0.306448190891 Rises=F Damp=T
 DIIS: error= 2.61D-02 at cycle   2 NSaved=   2.
 NSaved= 2 IEnMin= 2 EnMin= -1693.48646518465     IErMin= 2 ErrMin= 2.61D-02
 ErrMax= 2.61D-02  0.00D+00 EMaxC= 1.00D-01 BMatC= 2.99D-01 BMatP= 8.95D-01
 IDIUse=3 WtCom= 7.39D-01 WtEn= 2.61D-01
 Coeff-Com: -0.122D+01 0.222D+01
 Coeff-En:   0.000D+00 0.100D+01
 Coeff:     -0.901D+00 0.190D+01
 Gap=     0.059 Goal=   None    Shift=    0.000
 RMSDP=6.96D-04 MaxDP=3.40D-02 DE=-3.06D-01 OVMax= 1.16D-01

 Cycle   3  Pass 0  IDiag  1:
 RMSU=  4.35D-04    CP:  9.57D-01  2.24D+00
 E= -1694.04716400037     Delta-E=       -0.560698815721 Rises=F Damp=F
 DIIS: error= 5.09D-03 at cycle   3 NSaved=   3.
 NSaved= 3 IEnMin= 3 EnMin= -1694.04716400037     IErMin= 3 ErrMin= 5.09D-03
 ErrMax= 5.09D-03  0.00D+00 EMaxC= 1.00D-01 BMatC= 1.23D-02 BMatP= 2.99D-01
 IDIUse=3 WtCom= 9.49D-01 WtEn= 5.09D-02
 Coeff-Com: -0.266D+00 0.541D+00 0.725D+00
 Coeff-En:   0.000D+00 0.000D+00 0.100D+01
 Coeff:     -0.253D+00 0.514D+00 0.739D+00
 Gap=     0.065 Goal=   None    Shift=    0.000
 RMSDP=2.62D-04 MaxDP=1.66D-02 DE=-5.61D-01 OVMax= 1.35D-01

 Cycle   4  Pass 0  IDiag  1:
 RMSU=  2.22D-04    CP:  9.58D-01  2.14D+00  6.92D-01
 E= -1694.03996410792     Delta-E=        0.007199892453 Rises=F Damp=F
 DIIS: error= 8.83D-03 at cycle   4 NSaved=   4.
 NSaved= 4 IEnMin= 3 EnMin= -1694.04716400037     IErMin= 3 ErrMin= 5.09D-03
 ErrMax= 8.83D-03  0.00D+00 EMaxC= 1.00D-01 BMatC= 1.68D-02 BMatP= 1.23D-02
 IDIUse=3 WtCom= 9.62D-02 WtEn= 9.04D-01
 Coeff-Com: -0.451D-01 0.120D+00 0.538D+00 0.387D+00
 Coeff-En:   0.000D+00 0.000D+00 0.587D+00 0.413D+00
 Coeff:     -0.433D-02 0.116D-01 0.582D+00 0.411D+00
 Gap=     0.060 Goal=   None    Shift=    0.000
 RMSDP=1.57D-04 MaxDP=1.14D-02 DE= 7.20D-03 OVMax= 1.06D-01

 Cycle   5  Pass 0  IDiag  1:
 RMSU=  7.75D-05    CP:  9.58D-01  2.14D+00  7.81D-01  4.10D-01
 E= -1694.05940390935     Delta-E=       -0.019439801429 Rises=F Damp=F
 DIIS: error= 2.24D-03 at cycle   5 NSaved=   5.
 NSaved= 5 IEnMin= 5 EnMin= -1694.05940390935     IErMin= 5 ErrMin= 2.24D-03
 ErrMax= 2.24D-03  0.00D+00 EMaxC= 1.00D-01 BMatC= 1.02D-03 BMatP= 1.23D-02
 IDIUse=3 WtCom= 9.78D-01 WtEn= 2.24D-02
 Coeff-Com: -0.156D-01 0.347D-01 0.261D+00 0.224D+00 0.496D+00
 Coeff-En:   0.000D+00 0.000D+00 0.000D+00 0.000D+00 0.100D+01
 Coeff:     -0.153D-01 0.339D-01 0.255D+00 0.219D+00 0.507D+00
 Gap=     0.061 Goal=   None    Shift=    0.000
 RMSDP=4.73D-05 MaxDP=3.65D-03 DE=-1.94D-02 OVMax= 3.14D-02

 Cycle   6  Pass 0  IDiag  1:
 RMSU=  2.87D-05    CP:  9.58D-01  2.16D+00  7.93D-01  4.78D-01  5.80D-01
 E= -1694.06015618353     Delta-E=       -0.000752274188 Rises=F Damp=F
 DIIS: error= 1.27D-03 at cycle   6 NSaved=   6.
 NSaved= 6 IEnMin= 6 EnMin= -1694.06015618353     IErMin= 6 ErrMin= 1.27D-03
 ErrMax= 1.27D-03  0.00D+00 EMaxC= 1.00D-01 BMatC= 3.07D-04 BMatP= 1.02D-03
 IDIUse=3 WtCom= 9.87D-01 WtEn= 1.27D-02
 Coeff-Com: -0.503D-02 0.792D-02 0.112D+00 0.105D+00 0.377D+00 0.404D+00
 Coeff-En:   0.000D+00 0.000D+00 0.000D+00 0.000D+00 0.272D+00 0.728D+00
 Coeff:     -0.497D-02 0.782D-02 0.110D+00 0.103D+00 0.375D+00 0.408D+00
 Gap=     0.061 Goal=   None    Shift=    0.000
 RMSDP=2.30D-05 MaxDP=1.68D-03 DE=-7.52D-04 OVMax= 1.31D-02

 Cycle   7  Pass 0  IDiag  1:
 RMSU=  9.11D-06    CP:  9.58D-01  2.16D+00  7.98D-01  4.59D-01  6.45D-01
                    CP:  3.04D-01
 E= -1694.06050981052     Delta-E=       -0.000353626987 Rises=F Damp=F
 DIIS: error= 3.44D-04 at cycle   7 NSaved=   7.
 NSaved= 7 IEnMin= 7 EnMin= -1694.06050981052     IErMin= 7 ErrMin= 3.44D-04
 ErrMax= 3.44D-04  0.00D+00 EMaxC= 1.00D-01 BMatC= 2.17D-05 BMatP= 3.07D-04
 IDIUse=3 WtCom= 9.97D-01 WtEn= 3.44D-03
 Coeff-Com: -0.135D-02 0.146D-02 0.566D-01 0.534D-01 0.214D+00 0.278D+00
 Coeff-Com:  0.398D+00
 Coeff-En:   0.000D+00 0.000D+00 0.000D+00 0.000D+00 0.000D+00 0.281D-01
 Coeff-En:   0.972D+00
 Coeff:     -0.135D-02 0.146D-02 0.564D-01 0.532D-01 0.214D+00 0.277D+00
 Coeff:      0.400D+00
 Gap=     0.061 Goal=   None    Shift=    0.000
 RMSDP=5.89D-06 MaxDP=2.86D-04 DE=-3.54D-04 OVMax= 2.04D-03

 Initial convergence to 1.0D-05 achieved.  Increase integral accuracy.
 Cycle   8  Pass 1  IDiag  1:
 E= -1694.06023835701     Delta-E=        0.000271453516 Rises=F Damp=F
 DIIS: error= 5.77D-04 at cycle   1 NSaved=   1.
 NSaved= 1 IEnMin= 1 EnMin= -1694.06023835701     IErMin= 1 ErrMin= 5.77D-04
 ErrMax= 5.77D-04  0.00D+00 EMaxC= 1.00D-01 BMatC= 4.44D-05 BMatP= 4.44D-05
 IDIUse=3 WtCom= 9.94D-01 WtEn= 5.77D-03
 Coeff-Com:  0.100D+01
 Coeff-En:   0.100D+01
 Coeff:      0.100D+01
 Gap=     0.061 Goal=   None    Shift=    0.000
 RMSDP=5.89D-06 MaxDP=2.86D-04 DE= 2.71D-04 OVMax= 1.97D-03

 Cycle   9  Pass 1  IDiag  1:
 RMSU=  2.82D-04    CP:  9.99D-01
 E= -1694.06027441506     Delta-E=       -0.000036058053 Rises=F Damp=F
 DIIS: error= 1.59D-04 at cycle   2 NSaved=   2.
 NSaved= 2 IEnMin= 2 EnMin= -1694.06027441506     IErMin= 2 ErrMin= 1.59D-04
 ErrMax= 1.59D-04  0.00D+00 EMaxC= 1.00D-01 BMatC= 4.60D-06 BMatP= 4.44D-05
 IDIUse=3 WtCom= 9.98D-01 WtEn= 1.59D-03
 Coeff-Com:  0.118D+00 0.882D+00
 Coeff-En:   0.000D+00 0.100D+01
 Coeff:      0.118D+00 0.882D+00
 Gap=     0.061 Goal=   None    Shift=    0.000
 RMSDP=8.07D-06 MaxDP=5.75D-04 DE=-3.61D-05 OVMax= 4.79D-03

 Cycle  10  Pass 1  IDiag  1:
 RMSU=  7.80D-06    CP:  9.99D-01  1.01D+00
 E= -1694.06025097551     Delta-E=        0.000023439550 Rises=F Damp=F
 DIIS: error= 3.96D-04 at cycle   3 NSaved=   3.
 NSaved= 3 IEnMin= 2 EnMin= -1694.06027441506     IErMin= 2 ErrMin= 1.59D-04
 ErrMax= 3.96D-04  0.00D+00 EMaxC= 1.00D-01 BMatC= 2.32D-05 BMatP= 4.60D-06
 IDIUse=3 WtCom= 3.35D-01 WtEn= 6.65D-01
 Coeff-Com: -0.181D-03 0.694D+00 0.306D+00
 Coeff-En:   0.000D+00 0.771D+00 0.229D+00
 Coeff:     -0.605D-04 0.745D+00 0.255D+00
 Gap=     0.061 Goal=   None    Shift=    0.000
 RMSDP=4.77D-06 MaxDP=3.25D-04 DE= 2.34D-05 OVMax= 2.95D-03

 Cycle  11  Pass 1  IDiag  1:
 RMSU=  1.03D-06    CP:  9.99D-01  1.01D+00  4.11D-01
 E= -1694.06027892010     Delta-E=       -0.000027944589 Rises=F Damp=F
 DIIS: error= 5.11D-05 at cycle   4 NSaved=   4.
 NSaved= 4 IEnMin= 4 EnMin= -1694.06027892010     IErMin= 4 ErrMin= 5.11D-05
 ErrMax= 5.11D-05  0.00D+00 EMaxC= 1.00D-01 BMatC= 8.79D-07 BMatP= 4.60D-06
 IDIUse=1 WtCom= 1.00D+00 WtEn= 0.00D+00
 Coeff-Com: -0.367D-02 0.450D+00 0.126D+00 0.428D+00
 Coeff:     -0.367D-02 0.450D+00 0.126D+00 0.428D+00
 Gap=     0.061 Goal=   None    Shift=    0.000
 RMSDP=9.62D-07 MaxDP=7.10D-05 DE=-2.79D-05 OVMax= 4.70D-04

 Cycle  12  Pass 1  IDiag  1:
 RMSU=  3.73D-07    CP:  9.99D-01  1.01D+00  3.04D-01  7.15D-01
 E= -1694.06027987833     Delta-E=       -0.000000958231 Rises=F Damp=F
 DIIS: error= 5.25D-06 at cycle   5 NSaved=   5.
 NSaved= 5 IEnMin= 5 EnMin= -1694.06027987833     IErMin= 5 ErrMin= 5.25D-06
 ErrMax= 5.25D-06  0.00D+00 EMaxC= 1.00D-01 BMatC= 4.62D-09 BMatP= 8.79D-07
 IDIUse=1 WtCom= 1.00D+00 WtEn= 0.00D+00
 Coeff-Com: -0.222D-02 0.261D+00 0.715D-01 0.259D+00 0.411D+00
 Coeff:     -0.222D-02 0.261D+00 0.715D-01 0.259D+00 0.411D+00
 Gap=     0.061 Goal=   None    Shift=    0.000
 RMSDP=9.50D-08 MaxDP=5.75D-06 DE=-9.58D-07 OVMax= 5.18D-05

 Cycle  13  Pass 1  IDiag  1:
 RMSU=  8.70D-08    CP:  9.99D-01  1.01D+00  3.05D-01  7.28D-01  9.06D-01
 E= -1694.06027988328     Delta-E=       -0.000000004946 Rises=F Damp=F
 DIIS: error= 1.72D-06 at cycle   6 NSaved=   6.
 NSaved= 6 IEnMin= 6 EnMin= -1694.06027988328     IErMin= 6 ErrMin= 1.72D-06
 ErrMax= 1.72D-06  0.00D+00 EMaxC= 1.00D-01 BMatC= 6.63D-10 BMatP= 4.62D-09
 IDIUse=1 WtCom= 1.00D+00 WtEn= 0.00D+00
 Coeff-Com: -0.866D-03 0.987D-01 0.266D-01 0.101D+00 0.275D+00 0.499D+00
 Coeff:     -0.866D-03 0.987D-01 0.266D-01 0.101D+00 0.275D+00 0.499D+00
 Gap=     0.061 Goal=   None    Shift=    0.000
 RMSDP=3.69D-08 MaxDP=2.72D-06 DE=-4.95D-09 OVMax= 2.44D-05

 Cycle  14  Pass 1  IDiag  1:
 RMSU=  2.77D-08    CP:  9.99D-01  1.01D+00  3.06D-01  7.23D-01  9.34D-01
                    CP:  7.54D-01
 E= -1694.06027988399     Delta-E=       -0.000000000713 Rises=F Damp=F
 DIIS: error= 6.97D-07 at cycle   7 NSaved=   7.
 NSaved= 7 IEnMin= 7 EnMin= -1694.06027988399     IErMin= 7 ErrMin= 6.97D-07
 ErrMax= 6.97D-07  0.00D+00 EMaxC= 1.00D-01 BMatC= 8.73D-11 BMatP= 6.63D-10
 IDIUse=1 WtCom= 1.00D+00 WtEn= 0.00D+00
 Coeff-Com: -0.400D-03 0.449D-01 0.118D-01 0.472D-01 0.144D+00 0.334D+00
 Coeff-Com:  0.418D+00
 Coeff:     -0.400D-03 0.449D-01 0.118D-01 0.472D-01 0.144D+00 0.334D+00
 Coeff:      0.418D+00
 Gap=     0.061 Goal=   None    Shift=    0.000
 RMSDP=1.37D-08 MaxDP=6.95D-07 DE=-7.13D-10 OVMax= 6.84D-06

 Cycle  15  Pass 1  IDiag  1:
 RMSU=  8.35D-09    CP:  9.99D-01  1.01D+00  3.06D-01  7.25D-01  9.35D-01
                    CP:  7.87D-01  6.29D-01
 E= -1694.06027988407     Delta-E=       -0.000000000085 Rises=F Damp=F
 DIIS: error= 2.21D-07 at cycle   8 NSaved=   8.
 NSaved= 8 IEnMin= 8 EnMin= -1694.06027988407     IErMin= 8 ErrMin= 2.21D-07
 ErrMax= 2.21D-07  0.00D+00 EMaxC= 1.00D-01 BMatC= 1.43D-11 BMatP= 8.73D-11
 IDIUse=1 WtCom= 1.00D+00 WtEn= 0.00D+00
 Coeff-Com:  0.140D-04-0.211D-02-0.108D-02-0.415D-03 0.116D-01 0.926D-01
 Coeff-Com:  0.286D+00 0.614D+00
 Coeff:      0.140D-04-0.211D-02-0.108D-02-0.415D-03 0.116D-01 0.926D-01
 Coeff:      0.286D+00 0.614D+00
 Gap=     0.061 Goal=   None    Shift=    0.000
 RMSDP=5.45D-09 MaxDP=2.42D-07 DE=-8.55D-11 OVMax= 2.53D-06

 SCF Done:  E(RB3LYP) =  -1694.06027988     A.U. after   15 cycles
            NFock= 15  Conv=0.54D-08     -V/T= 2.0043
 KE= 1.686736098806D+03 PE=-1.332578376318D+04 EE= 5.247396949135D+03
 Leave Link  502 at Wed Sep 27 16:59:27 2023, MaxMem=  3221225472 cpu:            3989.1 elap:             110.8
 (Enter /home/center/opt/aarch64/apps/gaussian16/c01/g16/l601.exe)
 Copying SCF densities to generalized density rwf, IOpCl= 0 IROHF=0.

 **********************************************************************

            Population analysis using the SCF Density.

 **********************************************************************

 Orbital symmetries:
       Occupied  (A") (A') (A') (A") (A") (A') (A") (A') (A') (A')
                 (A") (A') (A") (A') (A") (A') (A") (A') (A") (A')
                 (A") (A') (A") (A') (A") (A') (A') (A") (A') (A")
                 (A") (A') (A") (A') (A') (A") (A') (A") (A') (A')
                 (A") (A') (A") (A') (A') (A") (A') (A") (A') (A')
                 (A") (A") (A') (A') (A") (A') (A') (A") (A') (A")
                 (A') (A") (A") (A") (A') (A') (A') (A') (A") (A")
                 (A') (A") (A") (A") (A') (A') (A") (A') (A') (A')
                 (A') (A") (A") (A') (A") (A") (A') (A") (A') (A')
                 (A") (A') (A") (A") (A') (A') (A") (A') (A") (A')
                 (A") (A') (A') (A') (A') (A') (A") (A") (A") (A')
                 (A') (A') (A") (A") (A") (A") (A") (A') (A") (A')
                 (A') (A') (A') (A") (A") (A') (A') (A") (A") (A')
                 (A") (A") (A') (A') (A") (A') (A") (A') (A') (A')
                 (A") (A") (A") (A") (A') (A')
       Virtual   (A') (A') (A") (A") (A") (A") (A') (A') (A') (A")
                 (A') (A') (A") (A') (A") (A') (A') (A') (A") (A")
                 (A') (A') (A") (A") (A') (A") (A') (A") (A") (A')
                 (A") (A') (A") (A') (A') (A") (A") (A') (A") (A')
                 (A') (A') (A') (A") (A") (A') (A') (A") (A") (A")
                 (A') (A') (A') (A') (A') (A') (A") (A') (A") (A")
                 (A') (A") (A") (A") (A') (A') (A") (A") (A') (A")
                 (A') (A') (A") (A') (A') (A") (A") (A') (A") (A')
                 (A") (A') (A') (A') (A") (A') (A") (A') (A') (A")
                 (A") (A") (A') (A') (A') (A') (A") (A") (A') (A")
                 (A') (A") (A') (A") (A') (A") (A") (A') (A") (A")
                 (A') (A') (A") (A') (A") (A') (A') (A") (A') (A')
                 (A") (A") (A') (A') (A') (A') (A') (A") (A") (A')
                 (A") (A') (A") (A') (A') (A") (A') (A") (A") (A')
                 (A') (A') (A") (A') (A") (A") (A') (A") (A") (A')
                 (A") (A') (A") (A") (A') (A') (A") (A') (A') (A")
                 (A') (A") (A') (A") (A') (A") (A') (A") (A") (A')
                 (A') (A') (A') (A') (A") (A") (A") (A") (A') (A")
                 (A") (A') (A') (A") (A') (A") (A') (A") (A') (A")
                 (A') (A") (A') (A') (A') (A") (A") (A") (A') (A')
                 (A") (A') (A') (A") (A') (A') (A") (A') (A") (A')
                 (A") (A') (A") (A") (A') (A") (A') (A') (A") (A")
                 (A') (A") (A") (A') (A') (A") (A') (A") (A') (A")
                 (A') (A') (A') (A") (A') (A") (A') (A") (A') (A")
                 (A") (A') (A') (A") (A') (A") (A") (A') (A') (A")
                 (A') (A") (A') (A") (A") (A') (A") (A') (A") (A')
                 (A') (A") (A') (A") (A') (A") (A") (A') (A') (A")
                 (A") (A') (A") (A') (A') (A") (A') (A") (A') (A')
                 (A") (A") (A") (A') (A') (A") (A") (A') (A') (A")
                 (A') (A") (A") (A') (A') (A') (A') (A") (A") (A")
                 (A") (A') (A") (A') (A') (A') (A") (A') (A") (A')
                 (A") (A') (A") (A') (A") (A") (A') (A') (A") (A')
                 (A") (A') (A") (A') (A") (A') (A") (A") (A') (A")
                 (A') (A") (A') (A") (A') (A') (A") (A") (A') (A')
                 (A") (A') (A') (A') (A") (A") (A') (A') (A") (A")
                 (A') (A") (A') (A') (A") (A') (A') (A') (A") (A')
                 (A') (A") (A') (A") (A") (A') (A") (A") (A") (A')
                 (A") (A') (A") (A") (A") (A') (A') (A") (A") (A')
                 (A') (A') (A") (A') (A') (A") (A') (A") (A') (A')
                 (A') (A") (A") (A') (A') (A") (A") (A') (A') (A")
                 (A") (A') (A') (A") (A") (A') (A') (A") (A') (A")
                 (A') (A') (A") (A') (A') (A") (A") (A') (A') (A")
                 (A") (A') (A') (A") (A') (A") (A') (A') (A") (A")
                 (A') (A') (A") (A") (A") (A") (A') (A") (A') (A')
                 (A") (A") (A") (A') (A') (A") (A') (A") (A') (A')
                 (A") (A') (A") (A") (A') (A") (A') (A") (A') (A')
                 (A") (A') (A") (A') (A") (A') (A') (A") (A') (A")
                 (A") (A') (A") (A') (A") (A') (A") (A') (A') (A")
                 (A') (A") (A') (A") (A') (A") (A') (A") (A") (A")
                 (A") (A') (A") (A') (A") (A") (A") (A') (A') (A')
                 (A") (A') (A") (A') (A') (A") (A') (A') (A") (A')
                 (A") (A") (A') (A') (A") (A') (A") (A') (A") (A")
                 (A') (A') (A") (A') (A") (A') (A") (A') (A") (A")
                 (A') (A") (A') (A") (A') (A") (A") (A') (A') (A')
                 (A') (A") (A") (A') (A") (A') (A") (A") (A') (A")
                 (A') (A") (A") (A') (A") (A') (A') (A") (A') (A')
                 (A") (A') (A') (A") (A") (A") (A') (A') (A") (A')
                 (A') (A") (A') (A") (A') (A') (A") (A') (A') (A")
                 (A") (A") (A') (A') (A') (A") (A") (A") (A') (A')
                 (A") (A") (A") (A') (A') (A") (A') (A') (A") (A')
                 (A') (A') (A") (A') (A") (A') (A') (A") (A") (A')
                 (A") (A') (A') (A") (A") (A') (A') (A') (A") (A')
                 (A") (A') (A') (A") (A") (A") (A') (A') (A") (A")
                 (A') (A") (A") (A') (A') (A') (A") (A') (A") (A')
                 (A") (A') (A") (A') (A") (A') (A') (A") (A") (A')
                 (A') (A") (A') (A") (A') (A") (A') (A') (A") (A')
                 (A") (A') (A") (A") (A') (A") (A') (A') (A') (A")
                 (A") (A') (A") (A') (A") (A') (A") (A") (A') (A')
                 (A') (A') (A") (A") (A') (A") (A') (A") (A") (A")
                 (A') (A') (A") (A') (A') (A') (A") (A") (A") (A')
                 (A') (A") (A') (A") (A') (A") (A') (A") (A") (A')
                 (A") (A") (A') (A') (A") (A') (A') (A") (A') (A")
                 (A') (A") (A') (A') (A') (A") (A") (A') (A") (A')
                 (A') (A") (A') (A") (A") (A') (A') (A") (A") (A')
                 (A') (A") (A') (A") (A') (A') (A") (A') (A') (A")
                 (A') (A') (A") (A") (A') (A") (A') (A') (A") (A")
                 (A") (A') (A") (A") (A') (A') (A") (A") (A') (A")
                 (A') (A') (A") (A") (A') (A') (A') (A') (A") (A")
                 (A") (A") (A') (A') (A") (A') (A') (A") (A') (A')
                 (A") (A") (A") (A") (A') (A') (A") (A') (A') (A')
                 (A") (A") (A') (A') (A") (A') (A") (A') (A") (A')
                 (A') (A") (A') (A")
 The electronic state is 1-A'.
 Alpha  occ. eigenvalues --  -10.19810 -10.19810 -10.19770 -10.19768 -10.19697
 Alpha  occ. eigenvalues --  -10.19697 -10.19643 -10.19643 -10.18854 -10.18806
 Alpha  occ. eigenvalues --  -10.18782 -10.18782 -10.18755 -10.18754 -10.18644
 Alpha  occ. eigenvalues --  -10.18644 -10.18602 -10.18602 -10.18572 -10.18572
 Alpha  occ. eigenvalues --  -10.18505 -10.18505 -10.17836 -10.17835 -10.17797
 Alpha  occ. eigenvalues --  -10.17797 -10.17722 -10.17722 -10.17642 -10.17642
 Alpha  occ. eigenvalues --  -10.16957 -10.16957 -10.16875 -10.16875 -10.16837
 Alpha  occ. eigenvalues --  -10.16836 -10.16833 -10.16752 -10.16752 -10.16652
 Alpha  occ. eigenvalues --  -10.16612 -10.16611 -10.16533 -10.16533  -0.90266
 Alpha  occ. eigenvalues --   -0.88754  -0.88232  -0.86786  -0.86420  -0.84485
 Alpha  occ. eigenvalues --   -0.83274  -0.81360  -0.80679  -0.79369  -0.79140
 Alpha  occ. eigenvalues --   -0.78691  -0.77471  -0.77211  -0.76804  -0.75100
 Alpha  occ. eigenvalues --   -0.74902  -0.73709  -0.73197  -0.71819  -0.70016
 Alpha  occ. eigenvalues --   -0.68214  -0.68071  -0.66280  -0.63540  -0.63168
 Alpha  occ. eigenvalues --   -0.61901  -0.61654  -0.61324  -0.60735  -0.60071
 Alpha  occ. eigenvalues --   -0.59997  -0.58866  -0.58472  -0.58221  -0.56633
 Alpha  occ. eigenvalues --   -0.53507  -0.53344  -0.53061  -0.51669  -0.51501
 Alpha  occ. eigenvalues --   -0.51248  -0.50400  -0.49301  -0.48583  -0.47897
 Alpha  occ. eigenvalues --   -0.47496  -0.46854  -0.46297  -0.46280  -0.46152
 Alpha  occ. eigenvalues --   -0.45560  -0.44849  -0.44713  -0.44413  -0.43917
 Alpha  occ. eigenvalues --   -0.43297  -0.42906  -0.42566  -0.42337  -0.42320
 Alpha  occ. eigenvalues --   -0.41777  -0.41605  -0.41525  -0.41174  -0.40734
 Alpha  occ. eigenvalues --   -0.40512  -0.40323  -0.40262  -0.39592  -0.39322
 Alpha  occ. eigenvalues --   -0.38940  -0.38546  -0.37571  -0.37247  -0.37090
 Alpha  occ. eigenvalues --   -0.36289  -0.35716  -0.35333  -0.34902  -0.34540
 Alpha  occ. eigenvalues --   -0.34193  -0.33819  -0.33505  -0.33016  -0.32946
 Alpha  occ. eigenvalues --   -0.32690  -0.31925  -0.31263  -0.30471  -0.30332
 Alpha  occ. eigenvalues --   -0.29216  -0.28558  -0.27455  -0.27408  -0.25530
 Alpha  occ. eigenvalues --   -0.25344  -0.23455  -0.23346  -0.21491  -0.18771
 Alpha  occ. eigenvalues --   -0.16741
 Alpha virt. eigenvalues --   -0.10649  -0.08686  -0.05353  -0.03694  -0.03421
 Alpha virt. eigenvalues --   -0.01721  -0.01069   0.00901   0.01183   0.01339
 Alpha virt. eigenvalues --    0.01981   0.03081   0.03406   0.03851   0.03975
 Alpha virt. eigenvalues --    0.03983   0.04856   0.05630   0.05799   0.06029
 Alpha virt. eigenvalues --    0.06140   0.06877   0.07263   0.07450   0.07785
 Alpha virt. eigenvalues --    0.08332   0.08740   0.09316   0.09590   0.09888
 Alpha virt. eigenvalues --    0.10507   0.11057   0.11389   0.11726   0.12107
 Alpha virt. eigenvalues --    0.13154   0.13222   0.13233   0.13420   0.14115
 Alpha virt. eigenvalues --    0.14713   0.15188   0.16246   0.16706   0.17162
 Alpha virt. eigenvalues --    0.17746   0.18167   0.18173   0.19080   0.19901
 Alpha virt. eigenvalues --    0.20313   0.20434   0.22101   0.22152   0.23654
 Alpha virt. eigenvalues --    0.24028   0.24156   0.24315   0.24875   0.25338
 Alpha virt. eigenvalues --    0.25447   0.26347   0.26754   0.26873   0.27085
 Alpha virt. eigenvalues --    0.27499   0.27611   0.28466   0.28625   0.28786
 Alpha virt. eigenvalues --    0.29139   0.29458   0.29559   0.30046   0.30144
 Alpha virt. eigenvalues --    0.30278   0.30559   0.31275   0.31874   0.32109
 Alpha virt. eigenvalues --    0.32656   0.33605   0.33891   0.34295   0.34329
 Alpha virt. eigenvalues --    0.34823   0.35170   0.35278   0.35461   0.35879
 Alpha virt. eigenvalues --    0.36251   0.37069   0.37082   0.37642   0.37756
 Alpha virt. eigenvalues --    0.38281   0.38390   0.38640   0.38863   0.39040
 Alpha virt. eigenvalues --    0.39046   0.39402   0.39706   0.39842   0.40012
 Alpha virt. eigenvalues --    0.40045   0.40323   0.40428   0.41153   0.41362
 Alpha virt. eigenvalues --    0.41710   0.42146   0.42289   0.42444   0.42637
 Alpha virt. eigenvalues --    0.42742   0.43117   0.43272   0.43275   0.43736
 Alpha virt. eigenvalues --    0.43912   0.44418   0.44569   0.44974   0.45150
 Alpha virt. eigenvalues --    0.45201   0.45372   0.45513   0.45780   0.45918
 Alpha virt. eigenvalues --    0.45953   0.46107   0.46302   0.46578   0.46840
 Alpha virt. eigenvalues --    0.46945   0.47017   0.47588   0.48049   0.48830
 Alpha virt. eigenvalues --    0.48976   0.49310   0.49538   0.49589   0.49940
 Alpha virt. eigenvalues --    0.50420   0.50504   0.50516   0.51005   0.51164
 Alpha virt. eigenvalues --    0.51408   0.51742   0.52089   0.52628   0.52792
 Alpha virt. eigenvalues --    0.53799   0.53884   0.54398   0.54981   0.55354
 Alpha virt. eigenvalues --    0.55479   0.56680   0.57105   0.57723   0.57851
 Alpha virt. eigenvalues --    0.57949   0.58365   0.58449   0.58746   0.58871
 Alpha virt. eigenvalues --    0.59231   0.59626   0.59997   0.60754   0.60936
 Alpha virt. eigenvalues --    0.61002   0.61482   0.61709   0.62059   0.62091
 Alpha virt. eigenvalues --    0.62289   0.62439   0.62798   0.63095   0.63378
 Alpha virt. eigenvalues --    0.63658   0.63800   0.63957   0.64259   0.64345
 Alpha virt. eigenvalues --    0.64611   0.64680   0.65139   0.65589   0.66783
 Alpha virt. eigenvalues --    0.67002   0.67080   0.67747   0.67980   0.68358
 Alpha virt. eigenvalues --    0.68592   0.69412   0.69829   0.70237   0.70990
 Alpha virt. eigenvalues --    0.71400   0.71459   0.71861   0.72118   0.72798
 Alpha virt. eigenvalues --    0.73001   0.73143   0.74060   0.74304   0.74440
 Alpha virt. eigenvalues --    0.75203   0.75246   0.76490   0.76638   0.76853
 Alpha virt. eigenvalues --    0.77182   0.77592   0.78221   0.78333   0.78442
 Alpha virt. eigenvalues --    0.78858   0.79127   0.79836   0.79947   0.80340
 Alpha virt. eigenvalues --    0.80490   0.81147   0.81965   0.82401   0.82568
 Alpha virt. eigenvalues --    0.82784   0.83498   0.83833   0.84076   0.84594
 Alpha virt. eigenvalues --    0.85092   0.85743   0.85990   0.86316   0.86650
 Alpha virt. eigenvalues --    0.87229   0.87555   0.87966   0.89431   0.89693
 Alpha virt. eigenvalues --    0.89963   0.90487   0.90869   0.91246   0.92196
 Alpha virt. eigenvalues --    0.93020   0.93624   0.93870   0.94879   0.95173
 Alpha virt. eigenvalues --    0.95433   0.95436   0.95949   0.96886   0.96928
 Alpha virt. eigenvalues --    0.97400   0.98356   0.98670   0.98900   0.99431
 Alpha virt. eigenvalues --    0.99722   0.99928   1.01074   1.01982   1.02039
 Alpha virt. eigenvalues --    1.02080   1.02510   1.02983   1.03346   1.03645
 Alpha virt. eigenvalues --    1.03668   1.03832   1.04412   1.04668   1.05338
 Alpha virt. eigenvalues --    1.05395   1.05452   1.05876   1.06318   1.06666
 Alpha virt. eigenvalues --    1.06952   1.07071   1.07209   1.07346   1.08141
 Alpha virt. eigenvalues --    1.08417   1.08524   1.08589   1.09352   1.09533
 Alpha virt. eigenvalues --    1.10318   1.10450   1.11231   1.11875   1.12104
 Alpha virt. eigenvalues --    1.12500   1.12664   1.13313   1.13439   1.13672
 Alpha virt. eigenvalues --    1.13802   1.14364   1.14750   1.14946   1.15519
 Alpha virt. eigenvalues --    1.16249   1.16656   1.16925   1.17803   1.18935
 Alpha virt. eigenvalues --    1.18988   1.19737   1.20292   1.20744   1.22519
 Alpha virt. eigenvalues --    1.22875   1.23391   1.24271   1.24705   1.25571
 Alpha virt. eigenvalues --    1.26439   1.27046   1.27750   1.28289   1.30457
 Alpha virt. eigenvalues --    1.31395   1.31567   1.32306   1.32502   1.33833
 Alpha virt. eigenvalues --    1.33997   1.35208   1.36170   1.36475   1.37175
 Alpha virt. eigenvalues --    1.39031   1.39409   1.39930   1.40017   1.40984
 Alpha virt. eigenvalues --    1.41367   1.42042   1.42128   1.42880   1.43215
 Alpha virt. eigenvalues --    1.43307   1.44020   1.44542   1.44674   1.45255
 Alpha virt. eigenvalues --    1.45500   1.46593   1.46944   1.47261   1.47766
 Alpha virt. eigenvalues --    1.47833   1.48144   1.48794   1.49184   1.49266
 Alpha virt. eigenvalues --    1.49550   1.49859   1.49952   1.50563   1.50885
 Alpha virt. eigenvalues --    1.50941   1.51632   1.52194   1.52663   1.52760
 Alpha virt. eigenvalues --    1.52933   1.53866   1.53959   1.54556   1.54959
 Alpha virt. eigenvalues --    1.55533   1.55647   1.55686   1.55913   1.56477
 Alpha virt. eigenvalues --    1.56518   1.57791   1.58515   1.58552   1.59551
 Alpha virt. eigenvalues --    1.59566   1.60514   1.60845   1.61621   1.61917
 Alpha virt. eigenvalues --    1.62103   1.62497   1.62855   1.62916   1.65261
 Alpha virt. eigenvalues --    1.65678   1.65778   1.65979   1.67080   1.68027
 Alpha virt. eigenvalues --    1.68971   1.69233   1.70035   1.70922   1.70989
 Alpha virt. eigenvalues --    1.71159   1.71412   1.71856   1.72316   1.72529
 Alpha virt. eigenvalues --    1.73582   1.73630   1.73951   1.74240   1.74422
 Alpha virt. eigenvalues --    1.74614   1.74958   1.75540   1.76705   1.77078
 Alpha virt. eigenvalues --    1.77776   1.78780   1.79033   1.79628   1.79994
 Alpha virt. eigenvalues --    1.80102   1.80398   1.81496   1.81507   1.82052
 Alpha virt. eigenvalues --    1.82441   1.82895   1.83224   1.83262   1.83633
 Alpha virt. eigenvalues --    1.84647   1.84869   1.84909   1.84961   1.85398
 Alpha virt. eigenvalues --    1.86142   1.86596   1.86945   1.87891   1.87957
 Alpha virt. eigenvalues --    1.88221   1.88295   1.88807   1.88834   1.89019
 Alpha virt. eigenvalues --    1.89465   1.89834   1.90147   1.90993   1.91153
 Alpha virt. eigenvalues --    1.91469   1.92049   1.92095   1.92692   1.93033
 Alpha virt. eigenvalues --    1.93349   1.93448   1.93976   1.94100   1.94289
 Alpha virt. eigenvalues --    1.95120   1.95196   1.95291   1.95848   1.96200
 Alpha virt. eigenvalues --    1.96425   1.97108   1.97264   1.97728   1.98370
 Alpha virt. eigenvalues --    1.99590   1.99878   2.00748   2.01048   2.01868
 Alpha virt. eigenvalues --    2.01993   2.02108   2.02611   2.03165   2.04982
 Alpha virt. eigenvalues --    2.05504   2.07707   2.07820   2.08515   2.09347
 Alpha virt. eigenvalues --    2.09626   2.10971   2.10994   2.11405   2.11890
 Alpha virt. eigenvalues --    2.12762   2.12950   2.13692   2.14049   2.15087
 Alpha virt. eigenvalues --    2.15528   2.16476   2.16909   2.17309   2.18249
 Alpha virt. eigenvalues --    2.19135   2.20179   2.20183   2.21923   2.22836
 Alpha virt. eigenvalues --    2.22963   2.23757   2.23800   2.23845   2.24081
 Alpha virt. eigenvalues --    2.24716   2.26061   2.26278   2.26514   2.27027
 Alpha virt. eigenvalues --    2.27406   2.28001   2.28272   2.28638   2.28926
 Alpha virt. eigenvalues --    2.29332   2.30339   2.31610   2.31830   2.33283
 Alpha virt. eigenvalues --    2.35004   2.35282   2.36070   2.37348   2.38587
 Alpha virt. eigenvalues --    2.38831   2.40171   2.40381   2.41870   2.42180
 Alpha virt. eigenvalues --    2.42532   2.43329   2.44899   2.45128   2.45382
 Alpha virt. eigenvalues --    2.45526   2.45667   2.47015   2.47511   2.49877
 Alpha virt. eigenvalues --    2.51079   2.53093   2.53460   2.53922   2.54281
 Alpha virt. eigenvalues --    2.55251   2.55374   2.57096   2.57275   2.57574
 Alpha virt. eigenvalues --    2.58147   2.59210   2.59408   2.59453   2.59920
 Alpha virt. eigenvalues --    2.60763   2.60904   2.61076   2.61192   2.61488
 Alpha virt. eigenvalues --    2.62117   2.62193   2.62447   2.62824   2.63337
 Alpha virt. eigenvalues --    2.63599   2.63976   2.64768   2.64897   2.64946
 Alpha virt. eigenvalues --    2.65924   2.66411   2.66681   2.66839   2.67006
 Alpha virt. eigenvalues --    2.67163   2.67959   2.68481   2.68764   2.68850
 Alpha virt. eigenvalues --    2.69036   2.69175   2.69522   2.70183   2.70238
 Alpha virt. eigenvalues --    2.70413   2.70721   2.71063   2.71684   2.71824
 Alpha virt. eigenvalues --    2.72671   2.73122   2.73587   2.73662   2.73760
 Alpha virt. eigenvalues --    2.74014   2.74629   2.75039   2.75367   2.75675
 Alpha virt. eigenvalues --    2.76780   2.77011   2.77456   2.77780   2.77991
 Alpha virt. eigenvalues --    2.78753   2.78850   2.79562   2.79721   2.79787
 Alpha virt. eigenvalues --    2.80012   2.80767   2.81838   2.82205   2.82479
 Alpha virt. eigenvalues --    2.83967   2.84103   2.84616   2.85387   2.86066
 Alpha virt. eigenvalues --    2.86205   2.87320   2.87720   2.88775   2.88890
 Alpha virt. eigenvalues --    2.89635   2.90409   2.90533   2.92158   2.92264
 Alpha virt. eigenvalues --    2.93034   2.93820   2.94067   2.94710   2.95168
 Alpha virt. eigenvalues --    2.96874   2.97349   2.98062   2.98527   2.98690
 Alpha virt. eigenvalues --    2.98959   2.99751   3.01087   3.03070   3.03372
 Alpha virt. eigenvalues --    3.05883   3.06545   3.08027   3.09570   3.09667
 Alpha virt. eigenvalues --    3.10105   3.10394   3.15587   3.15966   3.16861
 Alpha virt. eigenvalues --    3.17495   3.17899   3.18337   3.19406   3.21018
 Alpha virt. eigenvalues --    3.21632   3.22409   3.24107   3.25486   3.30269
 Alpha virt. eigenvalues --    3.30641   3.30649   3.30983   3.31952   3.33487
 Alpha virt. eigenvalues --    3.35157   3.35796   3.36659   3.37060   3.37557
 Alpha virt. eigenvalues --    3.37852   3.38033   3.39325   3.39593   3.40329
 Alpha virt. eigenvalues --    3.41590   3.41704   3.43158   3.43220   3.45163
 Alpha virt. eigenvalues --    3.45376   3.46302   3.47109   3.49580   3.49671
 Alpha virt. eigenvalues --    3.50742   3.51659   3.52434   3.52745   3.53346
 Alpha virt. eigenvalues --    3.56403   3.57498   3.58673   3.59336   3.61529
 Alpha virt. eigenvalues --    3.62118   3.62724   3.63675   3.64296   3.65222
 Alpha virt. eigenvalues --    3.65520   3.66918   3.67555   3.68812   3.69219
 Alpha virt. eigenvalues --    3.69490   3.71276   3.72470   3.73126   4.00075
 Alpha virt. eigenvalues --    4.00108   4.01249   4.01586   4.02407   4.02466
 Alpha virt. eigenvalues --    4.03260   4.03555   4.15687   4.16216   4.17320
 Alpha virt. eigenvalues --    4.19471   4.19989   4.20780   4.21002   4.21927
 Alpha virt. eigenvalues --    4.22049   4.23946   4.24253   4.26164   4.27533
 Alpha virt. eigenvalues --    4.30124   4.38301   4.41416   4.61901   4.64868
 Alpha virt. eigenvalues --    4.78371   4.79084   4.79840   4.81179   4.81460
 Alpha virt. eigenvalues --    4.82164   4.82530   4.83182   4.85367   4.85548
 Alpha virt. eigenvalues --   23.40651  23.45738  23.55488  23.61747  23.69863
 Alpha virt. eigenvalues --   23.75367  23.78169  23.79685  23.80999  23.81866
 Alpha virt. eigenvalues --   23.83170  23.85833  23.86174  23.88103  23.89001
 Alpha virt. eigenvalues --   23.89872  23.91368  23.91406  23.92602  23.95538
 Alpha virt. eigenvalues --   23.96756  23.98857  23.98927  24.00145  24.08862
 Alpha virt. eigenvalues --   24.09403  24.10152  24.10608  24.11188  24.11661
 Alpha virt. eigenvalues --   24.11810  24.13081  24.13630  24.13838  24.15140
 Alpha virt. eigenvalues --   24.15176  24.15229  24.15900  24.16872  24.16904
 Alpha virt. eigenvalues --   24.19761  24.19805  24.21717  24.21786
          Condensed to atoms (all electrons):
 Mulliken charges:
               1
     1  C   -0.052857
     2  C   -0.068494
     3  C   -0.045062
     4  C   -0.086273
     5  C   -0.087939
     6  C   -0.092727
     7  C    0.004958
     8  C   -0.052304
     9  C   -0.052872
    10  C   -0.057920
    11  H    0.085641
    12  H    0.078438
    13  H    0.076496
    14  H    0.085339
    15  H    0.098987
    16  H    0.098169
    17  C    0.000189
    18  C   -0.052304
    19  C   -0.057470
    20  C   -0.057920
    21  H    0.077150
    22  H    0.075238
    23  C    0.004958
    24  C   -0.052857
    25  C   -0.052872
    26  C   -0.068494
    27  H    0.078438
    28  H    0.076496
    29  C   -0.045062
    30  C   -0.087939
    31  C   -0.086273
    32  C   -0.092727
    33  H    0.085641
    34  H    0.098169
    35  H    0.098987
    36  H    0.085339
    37  C   -0.013547
    38  C   -0.140341
    39  C   -0.064813
    40  C   -0.033487
    41  C   -0.085272
    42  C   -0.130342
    43  C   -0.033474
    44  C   -0.000633
    45  C    0.008184
    46  C   -0.148584
    47  H    0.077791
    48  H    0.069284
    49  H    0.129028
    50  H    0.133662
    51  H    0.082844
    52  H    0.090166
    53  C   -0.037549
    54  C   -0.000633
    55  C    0.003788
    56  C   -0.148584
    57  H    0.067899
    58  H    0.126659
    59  C   -0.033474
    60  C   -0.013547
    61  C    0.008184
    62  C   -0.140341
    63  H    0.069284
    64  H    0.129028
    65  C   -0.064813
    66  C   -0.085272
    67  C   -0.033487
    68  C   -0.130342
    69  H    0.077791
    70  H    0.090166
    71  H    0.082844
    72  H    0.133662
 Sum of Mulliken charges =   0.00000
 Mulliken charges with hydrogens summed into heavy atoms:
               1
     1  C   -0.052857
     2  C   -0.068494
     3  C    0.040579
     4  C   -0.000934
     5  C    0.010231
     6  C    0.006261
     7  C    0.083396
     8  C   -0.052304
     9  C    0.023624
    10  C   -0.057920
    17  C    0.077339
    18  C   -0.052304
    19  C    0.017768
    20  C   -0.057920
    23  C    0.083396
    24  C   -0.052857
    25  C    0.023624
    26  C   -0.068494
    29  C    0.040579
    30  C    0.010231
    31  C   -0.000934
    32  C    0.006261
    37  C   -0.013547
    38  C   -0.140341
    39  C    0.012978
    40  C    0.100174
    41  C    0.004894
    42  C   -0.047498
    43  C    0.035809
    44  C   -0.000633
    45  C    0.137213
    46  C   -0.148584
    53  C    0.030350
    54  C   -0.000633
    55  C    0.130448
    56  C   -0.148584
    59  C    0.035809
    60  C   -0.013547
    61  C    0.137213
    62  C   -0.140341
    65  C    0.012978
    66  C    0.004894
    67  C    0.100174
    68  C   -0.047498
         Mulliken charges condensed to fragments:
      1     -0.041729
      2      0.041729
 Electronic spatial extent (au):  <R**2>=          25115.9861
 Charge=              0.0000 electrons
 Dipole moment (field-independent basis, Debye):
    X=              0.5040    Y=             -1.8937    Z=              0.0000  Tot=              1.9596
 Quadrupole moment (field-independent basis, Debye-Ang):
   XX=           -245.3624   YY=           -250.0367   ZZ=           -220.1623
   XY=             -0.2966   XZ=              0.0000   YZ=              0.0000
 Traceless Quadrupole moment (field-independent basis, Debye-Ang):
   XX=             -6.8419   YY=            -11.5162   ZZ=             18.3582
   XY=             -0.2966   XZ=              0.0000   YZ=              0.0000
 Octapole moment (field-independent basis, Debye-Ang**2):
  XXX=             30.2637  YYY=            161.7559  ZZZ=              0.0000  XYY=             -5.0340
  XXY=            -69.5927  XXZ=              0.0000  XZZ=              8.9607  YZZ=            -41.8017
  YYZ=              0.0000  XYZ=              0.0000
 Hexadecapole moment (field-independent basis, Debye-Ang**3):
 XXXX=          -1439.3787 YYYY=         -10428.6856 ZZZZ=         -21065.9203 XXXY=            643.6767
 XXXZ=              0.0000 YYYX=            650.7539 YYYZ=              0.0000 ZZZX=              0.0000
 ZZZY=              0.0000 XXYY=          -2049.0376 XXZZ=          -4181.4199 YYZZ=          -5560.0531
 XXYZ=              0.0000 YYXZ=              0.0000 ZZXY=            189.3993
 N-N= 4.697590435357D+03 E-N=-1.332578370601D+04  KE= 1.686736098806D+03
 Symmetry A'   KE= 9.134573571555D+02
 Symmetry A"   KE= 7.732787416510D+02
 No NMR shielding tensors so no spin-rotation constants.
 Leave Link  601 at Wed Sep 27 16:59:31 2023, MaxMem=  3221225472 cpu:              51.1 elap:               1.4
 (Enter /home/center/opt/aarch64/apps/gaussian16/c01/g16/l122.exe)
 CPIOFr:  IOpCl= 0 IRwI=-1 IRwCP=  731 ICalc= -1 LCPTot=     1419224 Len1MO=     3708034 IndFrg=     1419224
 CPIOFr:  IOpCl= 0 IRwI=-1 IRwCP=  731 ICalc=  0 LCPTot=     1419224 Len1MO=     3708034 IndFrg=     5127258
 Counterpoise: doing calculation for fragment   1 using the basis set of the full-system, NewBq=T
 Leave Link  122 at Wed Sep 27 16:59:34 2023, MaxMem=  3221225472 cpu:               8.6 elap:               0.4
 (Enter /home/center/opt/aarch64/apps/gaussian16/c01/g16/l301.exe)
 Basis read from rwf:  (5D, 7F)
 No pseudopotential information found on rwf file.
 There are   528 symmetry adapted cartesian basis functions of A'  symmetry.
 There are   476 symmetry adapted cartesian basis functions of A"  symmetry.
 There are   504 symmetry adapted basis functions of A'  symmetry.
 There are   456 symmetry adapted basis functions of A"  symmetry.
   960 basis functions,  1632 primitive gaussians,  1004 cartesian basis functions
    73 alpha electrons       73 beta electrons
       nuclear repulsion energy      1494.3575060175 Hartrees.
 IExCor=  402 DFT=T Ex+Corr=B3LYP ExCW=0 ScaHFX=  0.200000
 ScaDFX=  0.800000  0.720000  1.000000  0.810000 ScalE2=  1.000000  1.000000
 IRadAn=      5 IRanWt=     -1 IRanGd=            0 ICorTp=0 IEmpDi=131
 NAtoms=   72 NActive=   72 NUniq=   40 SFac= 3.24D+00 NAtFMM=   60 NAOKFM=T Big=F
 Integral buffers will be    131072 words long.
 Raffenetti 2 integral format.
 Two-electron integral symmetry is turned on.
 R6Disp:  Grimme-D3 Dispersion energy=       -0.0303938888 Hartrees.
 Nuclear repulsion after empirical dispersion term =     1494.3271121286 Hartrees.
 No density basis found on file    718.
 Leave Link  301 at Wed Sep 27 16:59:36 2023, MaxMem=  3221225472 cpu:               3.5 elap:               0.1
 (Enter /home/center/opt/aarch64/apps/gaussian16/c01/g16/l302.exe)
 NPDir=0 NMtPBC=     1 NCelOv=     1 NCel=       1 NClECP=     1 NCelD=      1
         NCelK=      1 NCelE2=     1 NClLst=     1 CellRange=     0.0.
 One-electron integrals computed using PRISM.
 One-electron integral symmetry used in STVInt
 NBasis=   960 RedAO= T EigKep=  3.71D-05  NBF=   504   456
 NBsUse=   960 1.00D-06 EigRej= -1.00D+00 NBFU=   504   456
 Precomputing XC quadrature grid using
 IXCGrd= 4 IRadAn=           5 IRanWt=          -1 IRanGd=           0 AccXCQ= 0.00D+00.
 Generated NRdTot=       0 NPtTot=           0 NUsed=           0 NTot=          32
 NSgBfM=   991   991   991   991   991 MxSgAt=    72 MxSgA2=    72.
 Leave Link  302 at Wed Sep 27 16:59:40 2023, MaxMem=  3221225472 cpu:              61.3 elap:               1.7
 (Enter /home/center/opt/aarch64/apps/gaussian16/c01/g16/l303.exe)
 DipDrv:  MaxL=1.
 Leave Link  303 at Wed Sep 27 16:59:43 2023, MaxMem=  3221225472 cpu:              12.5 elap:               0.3
 (Enter /home/center/opt/aarch64/apps/gaussian16/c01/g16/l401.exe)
 ExpMin= 1.03D-01 ExpMax= 4.56D+03 ExpMxC= 6.82D+02 IAcc=3 IRadAn=         5 AccDes= 0.00D+00
 Harris functional with IExCor=  402 and IRadAn=       5 diagonalized for initial guess.
 HarFok:  IExCor=  402 AccDes= 0.00D+00 IRadAn=         5 IDoV= 1 UseB2=F ITyADJ=14
 ICtDFT=  3500011 ScaDFX=  1.000000  1.000000  1.000000  1.000000
 FoFCou: FMM=F IPFlag=           0 FMFlag=      100000 FMFlg1=        2000
         NFxFlg=           0 DoJE=T BraDBF=F KetDBF=T FulRan=T
         wScrn=  0.000000 ICntrl=       500 IOpCl=  0 I1Cent=   200000004 NGrid=           0
         NMat0=    1 NMatS0=      1 NMatT0=    0 NMatD0=    1 NMtDS0=    0 NMtDT0=    0
 Petite list used in FoFCou.
 Harris En= -847.067352211277    
 JPrj=0 DoOrth=F DoCkMO=F.
 Initial guess orbital symmetries:
       Occupied  (A") (A') (A') (A") (A") (A') (A") (A') (A') (A")
                 (A") (A') (A') (A') (A") (A') (A") (A') (A") (A')
                 (A') (A") (A') (A") (A') (A") (A') (A') (A") (A')
                 (A") (A") (A') (A') (A") (A") (A') (A") (A') (A')
                 (A') (A") (A") (A") (A') (A') (A") (A') (A') (A")
                 (A') (A") (A") (A') (A') (A") (A') (A") (A') (A")
                 (A") (A') (A') (A") (A') (A") (A') (A") (A') (A')
                 (A") (A") (A')
       Virtual   (A') (A") (A") (A') (A') (A") (A') (A") (A') (A")
                 (A') (A') (A") (A') (A") (A') (A') (A") (A') (A")
                 (A") (A") (A') (A') (A") (A') (A') (A') (A") (A')
                 (A') (A") (A") (A') (A') (A") (A') (A") (A") (A')
                 (A') (A") (A") (A') (A") (A') (A") (A') (A") (A')
                 (A') (A") (A') (A") (A') (A') (A") (A") (A') (A')
                 (A") (A') (A') (A') (A") (A") (A") (A") (A') (A')
                 (A") (A') (A") (A') (A') (A') (A') (A") (A') (A")
                 (A') (A") (A") (A") (A') (A') (A') (A") (A") (A')
                 (A") (A") (A") (A') (A') (A') (A') (A') (A") (A')
                 (A") (A') (A") (A') (A") (A") (A') (A') (A") (A')
                 (A") (A') (A') (A") (A') (A") (A") (A") (A") (A')
                 (A') (A') (A") (A") (A') (A') (A') (A") (A") (A')
                 (A') (A') (A") (A') (A") (A') (A") (A") (A') (A')
                 (A') (A") (A') (A') (A") (A") (A") (A') (A") (A')
                 (A") (A') (A") (A') (A") (A') (A") (A') (A") (A')
                 (A') (A") (A') (A') (A") (A") (A') (A") (A') (A")
                 (A") (A') (A') (A") (A') (A') (A") (A') (A") (A")
                 (A") (A') (A') (A") (A') (A") (A") (A') (A') (A")
                 (A') (A') (A') (A') (A") (A') (A") (A") (A') (A")
                 (A') (A') (A") (A') (A") (A") (A") (A') (A") (A')
                 (A") (A") (A') (A') (A") (A') (A") (A') (A') (A")
                 (A") (A') (A') (A") (A') (A") (A') (A') (A") (A')
                 (A') (A") (A") (A') (A") (A") (A') (A") (A') (A')
                 (A") (A') (A") (A') (A") (A') (A") (A') (A") (A")
                 (A') (A") (A') (A') (A") (A') (A") (A') (A") (A')
                 (A") (A') (A') (A') (A") (A') (A") (A") (A') (A")
                 (A') (A') (A") (A") (A') (A") (A") (A') (A') (A")
                 (A') (A") (A') (A") (A') (A") (A') (A") (A') (A")
                 (A') (A') (A") (A') (A') (A") (A') (A") (A') (A")
                 (A') (A') (A") (A') (A') (A") (A") (A") (A") (A')
                 (A") (A') (A") (A') (A') (A") (A') (A") (A') (A')
                 (A") (A") (A') (A") (A') (A') (A") (A') (A") (A')
                 (A') (A') (A") (A') (A") (A') (A") (A') (A") (A")
                 (A') (A") (A") (A') (A") (A') (A') (A") (A') (A')
                 (A") (A") (A') (A') (A') (A") (A') (A") (A') (A')
                 (A") (A') (A") (A') (A") (A') (A") (A') (A") (A')
                 (A") (A") (A") (A") (A") (A') (A') (A') (A") (A')
                 (A") (A') (A') (A") (A") (A') (A') (A') (A") (A")
                 (A') (A") (A") (A') (A') (A') (A") (A') (A") (A')
                 (A") (A') (A") (A") (A') (A") (A") (A') (A') (A")
                 (A") (A') (A') (A') (A") (A') (A") (A') (A') (A")
                 (A") (A') (A") (A") (A') (A") (A") (A") (A') (A')
                 (A") (A') (A') (A') (A') (A") (A') (A") (A') (A")
                 (A") (A') (A') (A") (A') (A') (A") (A') (A") (A")
                 (A') (A") (A') (A") (A") (A') (A') (A") (A") (A')
                 (A") (A') (A') (A") (A") (A') (A') (A") (A') (A')
                 (A") (A') (A") (A") (A") (A') (A") (A') (A') (A")
                 (A") (A') (A") (A') (A") (A') (A') (A") (A") (A')
                 (A") (A') (A") (A') (A') (A') (A") (A") (A') (A")
                 (A') (A") (A') (A") (A') (A") (A") (A') (A') (A")
                 (A') (A') (A") (A") (A') (A") (A') (A") (A') (A")
                 (A') (A') (A") (A") (A') (A') (A") (A') (A") (A")
                 (A') (A') (A') (A") (A') (A") (A') (A") (A') (A")
                 (A') (A") (A') (A") (A') (A") (A') (A') (A") (A")
                 (A') (A') (A") (A') (A') (A") (A') (A") (A") (A')
                 (A') (A") (A") (A') (A") (A') (A") (A') (A") (A')
                 (A") (A') (A') (A") (A') (A') (A') (A") (A") (A')
                 (A") (A') (A") (A") (A') (A") (A') (A") (A") (A')
                 (A') (A') (A') (A") (A') (A") (A') (A") (A') (A")
                 (A") (A') (A") (A") (A') (A") (A') (A') (A') (A")
                 (A") (A') (A') (A") (A') (A") (A') (A") (A') (A")
                 (A') (A') (A") (A") (A') (A") (A') (A") (A') (A")
                 (A") (A') (A") (A") (A") (A') (A') (A') (A') (A')
                 (A") (A") (A") (A') (A") (A') (A') (A") (A') (A")
                 (A") (A') (A') (A") (A') (A") (A") (A') (A") (A')
                 (A') (A") (A") (A") (A') (A") (A') (A') (A") (A')
                 (A') (A") (A") (A') (A') (A") (A') (A") (A') (A')
                 (A") (A') (A") (A') (A') (A") (A') (A') (A") (A")
                 (A') (A") (A') (A') (A") (A") (A") (A') (A') (A')
[...]
                 (A') (A') (A") (A") (A') (A") (A') (A") (A') (A')
                 (A") (A") (A')
       Virtual   (A') (A") (A") (A') (A') (A") (A') (A') (A') (A")
                 (A") (A') (A") (A') (A") (A') (A") (A") (A') (A")
                 (A') (A') (A") (A') (A") (A') (A') (A') (A') (A")
                 (A") (A") (A") (A') (A') (A") (A') (A") (A') (A")
                 (A') (A') (A') (A") (A') (A") (A") (A') (A') (A")
                 (A") (A') (A') (A") (A') (A") (A") (A") (A') (A")
                 (A') (A') (A') (A') (A') (A") (A') (A') (A") (A")
                 (A") (A') (A') (A') (A") (A') (A") (A") (A") (A')
                 (A') (A") (A') (A") (A") (A') (A") (A') (A') (A')
                 (A') (A') (A") (A") (A") (A") (A') (A") (A') (A")
                 (A') (A') (A') (A") (A") (A') (A') (A") (A') (A")
                 (A') (A") (A") (A") (A') (A') (A") (A') (A') (A")
                 (A') (A") (A") (A') (A') (A") (A') (A") (A') (A")
                 (A") (A') (A') (A') (A') (A") (A") (A") (A') (A")
                 (A') (A") (A') (A") (A') (A') (A") (A") (A') (A")
                 (A') (A") (A') (A") (A') (A') (A") (A') (A") (A")
                 (A') (A") (A') (A') (A") (A") (A') (A") (A') (A")
                 (A') (A') (A") (A') (A') (A") (A") (A') (A') (A')
                 (A") (A') (A") (A") (A") (A") (A') (A") (A') (A')
                 (A") (A') (A") (A') (A') (A') (A") (A') (A") (A')
                 (A") (A") (A') (A') (A") (A") (A') (A') (A") (A')
                 (A') (A') (A') (A") (A") (A") (A") (A') (A') (A")
                 (A') (A") (A") (A') (A") (A') (A") (A') (A") (A')
                 (A") (A') (A') (A") (A') (A") (A") (A') (A') (A")
                 (A") (A') (A') (A") (A") (A') (A") (A") (A") (A')
                 (A') (A") (A') (A') (A") (A') (A') (A") (A') (A")
                 (A") (A') (A") (A') (A') (A") (A") (A") (A') (A')
                 (A") (A') (A') (A") (A") (A") (A') (A") (A') (A')
                 (A") (A') (A") (A') (A") (A') (A') (A') (A") (A')
                 (A") (A") (A') (A') (A") (A") (A') (A") (A') (A")
                 (A') (A') (A") (A") (A') (A') (A") (A') (A') (A')
                 (A") (A") (A') (A") (A') (A") (A') (A") (A') (A')
                 (A') (A") (A") (A") (A') (A") (A') (A') (A') (A")
                 (A") (A') (A") (A') (A') (A") (A') (A") (A") (A')
                 (A') (A") (A') (A") (A") (A') (A') (A") (A') (A")
                 (A') (A") (A') (A") (A') (A") (A") (A') (A') (A")
                 (A') (A") (A') (A') (A") (A") (A') (A") (A') (A')
                 (A") (A') (A") (A') (A') (A") (A') (A") (A') (A")
                 (A") (A') (A") (A') (A") (A') (A") (A') (A') (A")
                 (A") (A') (A") (A') (A') (A") (A") (A') (A') (A")
                 (A') (A") (A') (A") (A') (A') (A")
 The electronic state is 1-A'.
 Alpha  occ. eigenvalues --  -10.18931 -10.18930 -10.18896 -10.18895 -10.18848
 Alpha  occ. eigenvalues --  -10.18848 -10.18813 -10.18813 -10.17956 -10.17955
 Alpha  occ. eigenvalues --  -10.17920 -10.17920 -10.17919 -10.17919 -10.17875
 Alpha  occ. eigenvalues --  -10.17875 -10.17863 -10.17863 -10.17808 -10.17808
 Alpha  occ. eigenvalues --  -10.17781 -10.17781  -0.89340  -0.87865  -0.85549
 Alpha  occ. eigenvalues --   -0.82415  -0.79820  -0.78521  -0.78314  -0.75991
 Alpha  occ. eigenvalues --   -0.74255  -0.72901  -0.69196  -0.67344  -0.62728
 Alpha  occ. eigenvalues --   -0.62370  -0.61108  -0.59964  -0.59301  -0.57689
 Alpha  occ. eigenvalues --   -0.52709  -0.52573  -0.52293  -0.49654  -0.48513
 Alpha  occ. eigenvalues --   -0.47160  -0.46110  -0.45590  -0.45476  -0.43928
 Alpha  occ. eigenvalues --   -0.43182  -0.42578  -0.41808  -0.41572  -0.41386
 Alpha  occ. eigenvalues --   -0.40692  -0.40405  -0.39579  -0.38193  -0.36732
 Alpha  occ. eigenvalues --   -0.36341  -0.35550  -0.34094  -0.33809  -0.33058
 Alpha  occ. eigenvalues --   -0.32930  -0.31612  -0.29665  -0.28406  -0.26623
 Alpha  occ. eigenvalues --   -0.24364  -0.22582  -0.17855
 Alpha virt. eigenvalues --   -0.09755  -0.04464  -0.02747  -0.00147   0.02073
 Alpha virt. eigenvalues --    0.02370   0.03189   0.04746   0.04859   0.04871
 Alpha virt. eigenvalues --    0.06161   0.06575   0.07968   0.08162   0.08303
 Alpha virt. eigenvalues --    0.09607   0.10049   0.11524   0.11533   0.13796
 Alpha virt. eigenvalues --    0.14111   0.14670   0.18092   0.18194   0.18832
 Alpha virt. eigenvalues --    0.19391   0.22815   0.23002   0.24379   0.24942
 Alpha virt. eigenvalues --    0.25581   0.27528   0.27575   0.28012   0.28228
 Alpha virt. eigenvalues --    0.28947   0.29389   0.30158   0.30759   0.31175
 Alpha virt. eigenvalues --    0.32897   0.34528   0.36420   0.36484   0.37134
 Alpha virt. eigenvalues --    0.37503   0.37629   0.37651   0.38116   0.38643
 Alpha virt. eigenvalues --    0.39094   0.39439   0.39739   0.40236   0.40435
 Alpha virt. eigenvalues --    0.41918   0.41926   0.41940   0.42289   0.42318
 Alpha virt. eigenvalues --    0.42643   0.43748   0.44233   0.44835   0.45295
 Alpha virt. eigenvalues --    0.45683   0.45924   0.45953   0.46379   0.47165
 Alpha virt. eigenvalues --    0.47805   0.47809   0.47978   0.48073   0.48231
 Alpha virt. eigenvalues --    0.48568   0.49414   0.49572   0.51377   0.51846
 Alpha virt. eigenvalues --    0.52370   0.53118   0.53671   0.55998   0.57923
 Alpha virt. eigenvalues --    0.57955   0.59048   0.59201   0.60433   0.60585
 Alpha virt. eigenvalues --    0.60693   0.61101   0.61690   0.62105   0.62173
 Alpha virt. eigenvalues --    0.63432   0.63481   0.64458   0.64535   0.65533
 Alpha virt. eigenvalues --    0.66693   0.66910   0.67680   0.67724   0.70658
 Alpha virt. eigenvalues --    0.71305   0.71405   0.71494   0.72803   0.73989
 Alpha virt. eigenvalues --    0.75405   0.75894   0.76289   0.77801   0.77809
 Alpha virt. eigenvalues --    0.78943   0.79160   0.79723   0.81162   0.81509
 Alpha virt. eigenvalues --    0.82881   0.83001   0.84383   0.84585   0.84713
 Alpha virt. eigenvalues --    0.88087   0.89711   0.89765   0.91536   0.92083
 Alpha virt. eigenvalues --    0.92578   0.93749   0.95806   0.96107   0.96442
 Alpha virt. eigenvalues --    0.96590   0.96905   0.98547   1.00356   1.01118
 Alpha virt. eigenvalues --    1.02686   1.03027   1.03354   1.04405   1.05244
 Alpha virt. eigenvalues --    1.05439   1.05525   1.05950   1.07395   1.07547
 Alpha virt. eigenvalues --    1.07686   1.08438   1.10005   1.10036   1.12070
 Alpha virt. eigenvalues --    1.13223   1.13544   1.13650   1.14526   1.15341
 Alpha virt. eigenvalues --    1.17432   1.18332   1.19657   1.20432   1.23014
 Alpha virt. eigenvalues --    1.23618   1.27884   1.28234   1.30579   1.32076
 Alpha virt. eigenvalues --    1.32743   1.34942   1.37641   1.39236   1.39896
 Alpha virt. eigenvalues --    1.39942   1.40725   1.42751   1.43476   1.43554
 Alpha virt. eigenvalues --    1.45057   1.46086   1.47119   1.47538   1.48841
 Alpha virt. eigenvalues --    1.49280   1.49417   1.50258   1.50674   1.52268
 Alpha virt. eigenvalues --    1.52650   1.53402   1.54331   1.54372   1.54781
 Alpha virt. eigenvalues --    1.54807   1.57107   1.57715   1.58569   1.59882
 Alpha virt. eigenvalues --    1.60106   1.62692   1.63242   1.64856   1.66641
 Alpha virt. eigenvalues --    1.69292   1.69605   1.69709   1.70649   1.71804
 Alpha virt. eigenvalues --    1.72459   1.72619   1.73075   1.73096   1.73680
 Alpha virt. eigenvalues --    1.77494   1.78519   1.79157   1.79419   1.80511
 Alpha virt. eigenvalues --    1.81616   1.81887   1.82058   1.83581   1.84039
 Alpha virt. eigenvalues --    1.85487   1.87392   1.87456   1.87577   1.87728
 Alpha virt. eigenvalues --    1.88131   1.88613   1.90743   1.91387   1.92190
 Alpha virt. eigenvalues --    1.92193   1.92572   1.92670   1.93517   1.93938
 Alpha virt. eigenvalues --    1.94544   1.95483   1.97262   1.99429   2.00088
 Alpha virt. eigenvalues --    2.00602   2.01362   2.03019   2.05757   2.08293
 Alpha virt. eigenvalues --    2.09111   2.09256   2.09792   2.12192   2.14098
 Alpha virt. eigenvalues --    2.15528   2.15584   2.17200   2.19751   2.20833
 Alpha virt. eigenvalues --    2.21576   2.22525   2.23381   2.24503   2.26441
 Alpha virt. eigenvalues --    2.26972   2.27242   2.27719   2.28046   2.29391
 Alpha virt. eigenvalues --    2.33301   2.35725   2.39155   2.39384   2.40817
 Alpha virt. eigenvalues --    2.42649   2.43076   2.45776   2.45994   2.46870
 Alpha virt. eigenvalues --    2.51623   2.51954   2.53354   2.53485   2.55138
 Alpha virt. eigenvalues --    2.56159   2.58701   2.58838   2.59764   2.59776
 Alpha virt. eigenvalues --    2.60682   2.61147   2.61719   2.62222   2.63349
 Alpha virt. eigenvalues --    2.63999   2.64478   2.66054   2.66794   2.67121
 Alpha virt. eigenvalues --    2.67374   2.68356   2.68872   2.68876   2.69372
 Alpha virt. eigenvalues --    2.69557   2.69907   2.70083   2.70281   2.73482
 Alpha virt. eigenvalues --    2.74771   2.74836   2.76066   2.77101   2.77577
 Alpha virt. eigenvalues --    2.78232   2.78455   2.78850   2.80822   2.82359
 Alpha virt. eigenvalues --    2.85535   2.85993   2.86737   2.87294   2.90966
 Alpha virt. eigenvalues --    2.91783   2.92195   2.93676   2.95232   2.95887
 Alpha virt. eigenvalues --    2.99270   2.99858   3.03165   3.05604   3.06852
 Alpha virt. eigenvalues --    3.07371   3.15988   3.16029   3.16647   3.19843
 Alpha virt. eigenvalues --    3.20017   3.23601   3.29134   3.29680   3.31610
 Alpha virt. eigenvalues --    3.35095   3.35458   3.35677   3.35858   3.38023
 Alpha virt. eigenvalues --    3.39887   3.41413   3.44960   3.45362   3.47993
 Alpha virt. eigenvalues --    3.48278   3.50401   3.53073   3.57439   3.58649
 Alpha virt. eigenvalues --    3.61466   3.62620   3.63208   3.63698   3.65910
 Alpha virt. eigenvalues --    3.67534   3.67678   4.00384   4.00442   4.01859
 Alpha virt. eigenvalues --    4.02182   4.16133   4.16678   4.17360   4.21240
 Alpha virt. eigenvalues --    4.22396   4.22517   4.25488   4.38492   4.62290
 Alpha virt. eigenvalues --    4.79179   4.79740   4.80562   4.82562   4.83014
 Alpha virt. eigenvalues --   23.39176  23.54541  23.69085  23.77378  23.80419
 Alpha virt. eigenvalues --   23.81537  23.86099  23.89067  23.89154  23.92210
 Alpha virt. eigenvalues --   23.97563  23.98365  24.09049  24.09932  24.10529
 Alpha virt. eigenvalues --   24.12220  24.13779  24.14375  24.15775  24.15810
 Alpha virt. eigenvalues --   24.20452  24.20497
          Condensed to atoms (all electrons):
 Mulliken charges:
               1
     1  C    0.000000
     2  C    0.000000
     3  C    0.000000
     4  C    0.000000
     5  C    0.000000
     6  C    0.000000
     7  C    0.000000
     8  C    0.000000
     9  C    0.000000
    10  C    0.000000
    11  H    0.000000
    12  H    0.000000
    13  H    0.000000
    14  H    0.000000
    15  H    0.000000
    16  H    0.000000
    17  C    0.000000
    18  C    0.000000
    19  C    0.000000
    20  C    0.000000
    21  H    0.000000
    22  H    0.000000
    23  C    0.000000
    24  C    0.000000
    25  C    0.000000
    26  C    0.000000
    27  H    0.000000
    28  H    0.000000
    29  C    0.000000
    30  C    0.000000
    31  C    0.000000
    32  C    0.000000
    33  H    0.000000
    34  H    0.000000
    35  H    0.000000
    36  H    0.000000
    37  C   -0.059168
    38  C   -0.059168
    39  C   -0.055977
    40  C   -0.055977
    41  C   -0.092198
    42  C   -0.092198
    43  C   -0.016525
    44  C   -0.054498
    45  C   -0.016525
    46  C   -0.054498
    47  H    0.082122
    48  H    0.074853
    49  H    0.074853
    50  H    0.082122
    51  H    0.094847
    52  H    0.094847
    53  C   -0.020341
    54  C   -0.054498
    55  C   -0.020341
    56  C   -0.054498
    57  H    0.073428
    58  H    0.073428
    59  C   -0.016525
    60  C   -0.059168
    61  C   -0.016525
    62  C   -0.059168
    63  H    0.074853
    64  H    0.074853
    65  C   -0.055977
    66  C   -0.092198
    67  C   -0.055977
    68  C   -0.092198
    69  H    0.082122
    70  H    0.094847
    71  H    0.094847
    72  H    0.082122
 Sum of Mulliken charges =   0.00000
 Mulliken charges with hydrogens summed into heavy atoms:
               1
     1  C    0.000000
     2  C    0.000000
     3  C    0.000000
     4  C    0.000000
     5  C    0.000000
     6  C    0.000000
     7  C    0.000000
     8  C    0.000000
     9  C    0.000000
    10  C    0.000000
    17  C    0.000000
    18  C    0.000000
    19  C    0.000000
    20  C    0.000000
    23  C    0.000000
    24  C    0.000000
    25  C    0.000000
    26  C    0.000000
    29  C    0.000000
    30  C    0.000000
    31  C    0.000000
    32  C    0.000000
    37  C   -0.059168
    38  C   -0.059168
    39  C    0.026144
    40  C    0.026144
    41  C    0.002649
    42  C    0.002649
    43  C    0.058328
    44  C   -0.054498
    45  C    0.058328
    46  C   -0.054498
    53  C    0.053087
    54  C   -0.054498
    55  C    0.053087
    56  C   -0.054498
    59  C    0.058328
    60  C   -0.059168
    61  C    0.058328
    62  C   -0.059168
    65  C    0.026144
    66  C    0.002649
    67  C    0.026144
    68  C    0.002649
         Mulliken charges condensed to fragments:
      1      0.000000
      2      0.000000
 Electronic spatial extent (au):  <R**2>=          17640.1928
 Charge=              0.0000 electrons
 Dipole moment (field-independent basis, Debye):
    X=              0.0000    Y=              0.0000    Z=              0.0000  Tot=              0.0000
 Quadrupole moment (field-independent basis, Debye-Ang):
   XX=           -136.3921   YY=           -110.7480   ZZ=           -109.0115
   XY=              0.0000   XZ=              0.0000   YZ=              0.0000
 Traceless Quadrupole moment (field-independent basis, Debye-Ang):
   XX=            -17.6749   YY=              7.9692   ZZ=              9.7057
   XY=              0.0000   XZ=              0.0000   YZ=              0.0000
 Octapole moment (field-independent basis, Debye-Ang**2):
  XXX=           1157.3250  YYY=            939.7282  ZZZ=              0.0000  XYY=            313.2428
  XXY=            385.7750  XXZ=              0.0000  XZZ=            308.3310  YZZ=            308.3310
  YYZ=              0.0000  XYZ=              0.0000
 Hexadecapole moment (field-independent basis, Debye-Ang**3):
 XXXX=          -6701.2227 YYYY=          -6432.6223 ZZZZ=         -10461.4325 XXXY=          -3273.4094
 XXXZ=              0.0000 YYYX=          -2657.9527 YYYZ=              0.0000 ZZZX=              0.0000
 ZZZY=              0.0000 XXYY=          -2233.5361 XXZZ=          -3080.0238 YYZZ=          -2841.3062
 XXYZ=              0.0000 YYXZ=              0.0000 ZZXY=           -872.0918
 N-N= 1.494327110001D+03 E-N=-4.953709171465D+03  KE= 8.433374904125D+02
 Symmetry A'   KE= 4.567052305076D+02
 Symmetry A"   KE= 3.866322599049D+02
 No NMR shielding tensors so no spin-rotation constants.
 Leave Link  601 at Wed Sep 27 17:16:50 2023, MaxMem=  3221225472 cpu:              18.5 elap:               0.5
 (Enter /home/center/opt/aarch64/apps/gaussian16/c01/g16/l122.exe)
 CPIOFr:  IOpCl= 0 IRwI=-1 IRwCP=  731 ICalc=  4 LCPTot=     1419224 Len1MO=     3708034 IndFrg=    19959394
 Restoring MOs from calculation   1 to rwf.
 CPIOFr:  IOpCl= 0 IRwI=-2 IRwCP=  731 ICalc=  0 LCPTot=     1419224 Len1MO=     3708034 IndFrg=     5127258
 Counterpoise corrected energy =   -1694.041458335812
                   BSSE energy =       0.000021983381
              sum of fragments =   -1694.039683044264
           complexation energy =      -1.13 kcal/mole (raw)
           complexation energy =      -1.11 kcal/mole (corrected)
 Leave Link  122 at Wed Sep 27 17:16:52 2023, MaxMem=  3221225472 cpu:               8.3 elap:               0.3
 (Enter /home/center/opt/aarch64/apps/gaussian16/c01/g16/l9999.exe)

 Test job not archived.
 1\1\GINC-FX0512\SP\RB3LYP\6-311G(d,p)\C44H28\Z40145W\27-Sep-2023\0\\#P
  TEST b3lyp/6-311G** EmpiricalDispersion=GD3 counterpoise=2\\pentacene
 _A1=0_A2=0_A3=45_p2\\0,1\C,0,-0.5039478476,0.5239478476,-3.6612755801\
 C,0,0.5239480325,-0.5039480325,-3.6612755629\C,0,-0.9861248463,1.00612
 48463,-4.9235927708\C,0,1.0061250889,-0.9861250889,-4.9235926697\C,0,-
 0.4963213507,0.5163213507,-6.096356521\C,0,0.5163216812,-0.4963216812,
 -6.0963564796\C,0,-0.9844684311,1.0044684311,-2.4533174875\C,0,-0.5044
 88426,0.524488426,-1.2140288145\C,0,1.0044685359,-0.9844685359,-2.4533
 173917\C,0,0.5244885437,-0.5044885437,-1.2140288362\H,0,-1.7533559667,
 1.7733559667,-4.9232600459\H,0,-1.7521866813,1.7721866813,-2.453928581
 5\H,0,1.7721859268,-1.7521859268,-2.4539284818\H,0,1.7733558421,-1.753
 3558421,-4.9232597785\H,0,0.8905568758,-0.8705568758,-7.0425276922\H,0
 ,-0.8705565046,0.8905565046,-7.042527775\C,0,-0.9848184961,1.004818496
 1,0.0099998782\C,0,-0.5044883957,0.5244883957,1.2340295553\C,0,1.00481
 85643,-0.9848185643,0.0099998696\C,0,0.5244885146,-0.5044885146,1.2340
 295261\H,0,-1.7524699697,1.7724699697,0.0099999205\H,0,1.772468921,-1.
 752468921,0.0099999641\C,0,-0.9844683048,1.0044683048,2.4733171385\C,0
 ,-0.5039477114,0.5239477114,3.681276331\C,0,1.0044684211,-0.9844684211
 ,2.4733170835\C,0,0.5239479079,-0.5039479079,3.6812763217\H,0,-1.75218
 65527,1.7721865527,2.4739285326\H,0,1.7721858092,-1.7521858092,2.47392
 83796\C,0,-0.9861245177,1.0061245177,4.9435920588\C,0,-0.4963209372,0.
 5163209372,6.116356633\C,0,1.0061247659,-0.9861247659,4.9435919377\C,0
 ,0.5163212637,-0.4963212637,6.1163566075\H,0,-1.7533556504,1.773355650
 4,4.9432601504\H,0,-0.8705567426,0.8905567426,7.0625274368\H,0,0.89055
 70967,-0.8705570967,7.0625272142\H,0,1.7733555414,-1.7533555414,4.9432
 599297\C,0,7.4960521524,0.5239478476,-3.6612755801\C,0,8.5239480325,-0
 .5039480325,-3.6612755629\C,0,7.0138751537,1.0061248463,-4.9235927708\
 C,0,9.0061250889,-0.9861250889,-4.9235926697\C,0,7.5036786493,0.516321
 3507,-6.096356521\C,0,8.5163216812,-0.4963216812,-6.0963564796\C,0,7.0
 155315689,1.0044684311,-2.4533174875\C,0,7.495511574,0.524488426,-1.21
 40288145\C,0,9.0044685359,-0.9844685359,-2.4533173917\C,0,8.5244885437
 ,-0.5044885437,-1.2140288362\H,0,6.2466440333,1.7733559667,-4.92326004
 59\H,0,6.2478133187,1.7721866813,-2.4539285815\H,0,9.7721859268,-1.752
 1859268,-2.4539284818\H,0,9.7733558421,-1.7533558421,-4.9232597785\H,0
 ,8.8905568758,-0.8705568758,-7.0425276922\H,0,7.1294434954,0.890556504
 6,-7.042527775\C,0,7.0151815039,1.0048184961,0.0099998782\C,0,7.495511
 6043,0.5244883957,1.2340295553\C,0,9.0048185643,-0.9848185643,0.009999
 8696\C,0,8.5244885146,-0.5044885146,1.2340295261\H,0,6.2475300303,1.77
 24699697,0.0099999205\H,0,9.772468921,-1.752468921,0.0099999641\C,0,7.
 0155316952,1.0044683048,2.4733171385\C,0,7.4960522886,0.5239477114,3.6
 81276331\C,0,9.0044684211,-0.9844684211,2.4733170835\C,0,8.5239479079,
 -0.5039479079,3.6812763217\H,0,6.2478134473,1.7721865527,2.4739285326\
 H,0,9.7721858092,-1.7521858092,2.4739283796\C,0,7.0138754823,1.0061245
 177,4.9435920588\C,0,7.5036790628,0.5163209372,6.116356633\C,0,9.00612
 47659,-0.9861247659,4.9435919377\C,0,8.5163212637,-0.4963212637,6.1163
 566075\H,0,6.2466443496,1.7733556504,4.9432601504\H,0,7.1294432574,0.8
 905567426,7.0625274368\H,0,8.8905570967,-0.8705570967,7.0625272142\H,0
 ,9.7733555414,-1.7533555414,4.9432599297\\Version=Fujitsu-Arm-G16RevC.
 01\State=1-A'\HF=-847.0198415\RMSD=3.186e-09\Dipole=0.0000189,-0.00001
 87,0.\Quadrupole=-7.8783043,-6.5002268,14.3785311,-18.3248264,0.,0.\PG
 =CS [SG(C4H4),X(C40H24)]\\@


 A great many people think they are thinking when they
 are merely rearranging their prejudices.
                               -- William James
 Job cpu time:       0 days  2 hours 44 minutes 42.2 seconds.
 Elapsed time:       0 days  0 hours  4 minutes 21.1 seconds.
 File lengths (MBytes):  RWF=    718 Int=      0 D2E=      0 Chk=    208 Scr=      1
 Normal termination of Gaussian 16 at Wed Sep 27 17:16:58 2023.
