 Entering Gaussian System, Link 0=g16
 Initial command:
 /home/center/opt/aarch64/apps/gaussian16/c01/g16/l1.exe "/data/tmp/Gtmp/1006956/Gau-50.inp" -scrdir="/data/tmp/Gtmp/1006956/"
 Entering Link 1 = /home/center/opt/aarch64/apps/gaussian16/c01/g16/l1.exe PID=        51.
  
 Copyright (c) 1988-2019, Gaussian, Inc.  All Rights Reserved.
  
 This is part of the Gaussian(R) 16 program.  It is based on
 the Gaussian(R) 09 system (copyright 2009, Gaussian, Inc.),
 the Gaussian(R) 03 system (copyright 2003, Gaussian, Inc.),
 the Gaussian(R) 98 system (copyright 1998, Gaussian, Inc.),
 the Gaussian(R) 94 system (copyright 1995, Gaussian, Inc.),
 the Gaussian 92(TM) system (copyright 1992, Gaussian, Inc.),
 the Gaussian 90(TM) system (copyright 1990, Gaussian, Inc.),
 the Gaussian 88(TM) system (copyright 1988, Gaussian, Inc.),
 the Gaussian 86(TM) system (copyright 1986, Carnegie Mellon
 University), and the Gaussian 82(TM) system (copyright 1983,
 Carnegie Mellon University). Gaussian is a federally registered
 trademark of Gaussian, Inc.
  
 This software contains proprietary and confidential information,
 including trade secrets, belonging to Gaussian, Inc.
  
 This software is provided under written license and may be
 used, copied, transmitted, or stored only in accord with that
 written license.
  
 The following legend is applicable only to US Government
 contracts under FAR:
  
                    RESTRICTED RIGHTS LEGEND
  
 Use, reproduction and disclosure by the US Government is
 subject to restrictions as set forth in subparagraphs (a)
 and (c) of the Commercial Computer Software - Restricted
 Rights clause in FAR 52.227-19.
  
 Gaussian, Inc.
 340 Quinnipiac St., Bldg. 40, Wallingford CT 06492
  
  
 ---------------------------------------------------------------
 Warning -- This program may not be used in any manner that
 competes with the business of Gaussian, Inc. or will provide
 assistance to any competitor of Gaussian, Inc.  The licensee
 of this program is prohibited from giving any competitor of
 Gaussian, Inc. access to this program.  By using this program,
 the user acknowledges that Gaussian, Inc. is engaged in the
 business of creating and licensing software in the field of
 computational chemistry and represents and warrants to the
 licensee that it is not a competitor of Gaussian, Inc. and that
 it will not use this program in any manner prohibited above.
 ---------------------------------------------------------------
  

 Cite this work as:
 Gaussian 16, Revision C.01,
 M. J. Frisch, G. W. Trucks, H. B. Schlegel, G. E. Scuseria, 
 M. A. Robb, J. R. Cheeseman, G. Scalmani, V. Barone, 
 G. A. Petersson, H. Nakatsuji, X. Li, M. Caricato, A. V. Marenich, 
 J. Bloino, B. G. Janesko, R. Gomperts, B. Mennucci, H. P. Hratchian, 
 J. V. Ortiz, A. F. Izmaylov, J. L. Sonnenberg, D. Williams-Young, 
 F. Ding, F. Lipparini, F. Egidi, J. Goings, B. Peng, A. Petrone, 
 T. Henderson, D. Ranasinghe, V. G. Zakrzewski, J. Gao, N. Rega, 
 G. Zheng, W. Liang, M. Hada, M. Ehara, K. Toyota, R. Fukuda, 
 J. Hasegawa, M. Ishida, T. Nakajima, Y. Honda, O. Kitao, H. Nakai, 
 T. Vreven, K. Throssell, J. A. Montgomery, Jr., J. E. Peralta, 
 F. Ogliaro, M. J. Bearpark, J. J. Heyd, E. N. Brothers, K. N. Kudin, 
 V. N. Staroverov, T. A. Keith, R. Kobayashi, J. Normand, 
 K. Raghavachari, A. P. Rendell, J. C. Burant, S. S. Iyengar, 
 J. Tomasi, M. Cossi, J. M. Millam, M. Klene, C. Adamo, R. Cammi, 
 J. W. Ochterski, R. L. Martin, K. Morokuma, O. Farkas, 
 J. B. Foresman, and D. J. Fox, Gaussian, Inc., Wallingford CT, 2019.
 
 ************************************************
 Gaussian 16:  Fujitsu-Arm-G16RevC.01  3-Jul-2019
                   27-Sep-2023 
 ************************************************
 %mem=24GB
 %nproc=42
 Will use up to   42 processors via shared memory.
 -------------------------------------------------------------
 #P TEST b3lyp/6-311G** EmpiricalDispersion=GD3 counterpoise=2
 -------------------------------------------------------------
 1/38=1,62=2,172=1/1;
 2/12=2,17=6,18=5,40=1/2;
 1/38=1,53=2,62=2,63=1/22;
 3/5=4,6=6,7=101,11=2,25=1,30=1,74=-5,124=31/1,2,3;
 4//1;
 5/5=2,38=5/2;
 6/7=2,8=2,9=2,10=2,28=1/1;
 1/53=2,62=2,63=1/22;
 3/5=7,6=11,7=101,11=2,25=1,30=1,74=-5,82=7,124=31/1,2,3;
 4//1;
 5/5=2,38=5/2;
 6/7=2,8=2,9=2,10=2,28=1/1;
 1/53=2,62=2,63=1/22(-4);
 99/5=1,9=1/99;
 Leave Link    1 at Wed Sep 27 16:37:43 2023, MaxMem=  3221225472 cpu:               7.2 elap:               0.2
 (Enter /home/center/opt/aarch64/apps/gaussian16/c01/g16/l101.exe)
 ----------------------------
 pentacene_A1=0_A2=0_A3=45_t1
 ----------------------------
 Symbolic Z-matrix:
 Charge =  0 Multiplicity = 1 in supermolecule
 Charge =  0 Multiplicity = 1 in fragment      1.
 Charge =  0 Multiplicity = 1 in fragment      2.
 C(Fragment=1)        -0.50395   0.52395  -3.66128 
 C(Fragment=1)         0.52395  -0.50395  -3.66128 
 C(Fragment=1)        -0.98612   1.00612  -4.92359 
 C(Fragment=1)         1.00613  -0.98613  -4.92359 
 C(Fragment=1)        -0.49632   0.51632  -6.09636 
 C(Fragment=1)         0.51632  -0.49632  -6.09636 
 C(Fragment=1)        -0.98447   1.00447  -2.45332 
 C(Fragment=1)        -0.50449   0.52449  -1.21403 
 C(Fragment=1)         1.00447  -0.98447  -2.45332 
 C(Fragment=1)         0.52449  -0.50449  -1.21403 
 H(Fragment=1)        -1.75336   1.77336  -4.92326 
 H(Fragment=1)        -1.75219   1.77219  -2.45393 
 H(Fragment=1)         1.77219  -1.75219  -2.45393 
 H(Fragment=1)         1.77336  -1.75336  -4.92326 
 H(Fragment=1)         0.89056  -0.87056  -7.04253 
 H(Fragment=1)        -0.87056   0.89056  -7.04253 
 C(Fragment=1)        -0.98482   1.00482   0.01 
 C(Fragment=1)        -0.50449   0.52449   1.23403 
 C(Fragment=1)         1.00482  -0.98482   0.01 
 C(Fragment=1)         0.52449  -0.50449   1.23403 
 H(Fragment=1)        -1.75247   1.77247   0.01 
 H(Fragment=1)         1.77247  -1.75247   0.01 
 C(Fragment=1)        -0.98447   1.00447   2.47332 
 C(Fragment=1)        -0.50395   0.52395   3.68128 
 C(Fragment=1)         1.00447  -0.98447   2.47332 
 C(Fragment=1)         0.52395  -0.50395   3.68128 
 H(Fragment=1)        -1.75219   1.77219   2.47393 
 H(Fragment=1)         1.77219  -1.75219   2.47393 
 C(Fragment=1)        -0.98612   1.00612   4.94359 
 C(Fragment=1)        -0.49632   0.51632   6.11636 
 C(Fragment=1)         1.00612  -0.98612   4.94359 
 C(Fragment=1)         0.51632  -0.49632   6.11636 
 H(Fragment=1)        -1.75336   1.77336   4.94326 
 H(Fragment=1)        -0.87056   0.89056   7.06253 
 H(Fragment=1)         0.89056  -0.87056   7.06253 
 H(Fragment=1)         1.77336  -1.75336   4.94326 
 C(Fragment=2)         4.02395   4.02395  -3.66128 
 C(Fragment=2)         2.99605   2.99605  -3.66128 
 C(Fragment=2)         4.50612   4.50612  -4.92359 
 C(Fragment=2)         2.51387   2.51387  -4.92359 
 C(Fragment=2)         4.01632   4.01632  -6.09636 
 C(Fragment=2)         3.00368   3.00368  -6.09636 
 C(Fragment=2)         4.50447   4.50447  -2.45332 
 C(Fragment=2)         4.02449   4.02449  -1.21403 
 C(Fragment=2)         2.51553   2.51553  -2.45332 
 C(Fragment=2)         2.99551   2.99551  -1.21403 
 H(Fragment=2)         5.27336   5.27336  -4.92326 
 H(Fragment=2)         5.27219   5.27219  -2.45393 
 H(Fragment=2)         1.74781   1.74781  -2.45393 
 H(Fragment=2)         1.74664   1.74664  -4.92326 
 H(Fragment=2)         2.62944   2.62944  -7.04253 
 H(Fragment=2)         4.39056   4.39056  -7.04253 
 C(Fragment=2)         4.50482   4.50482   0.01 
 C(Fragment=2)         4.02449   4.02449   1.23403 
 C(Fragment=2)         2.51518   2.51518   0.01 
 C(Fragment=2)         2.99551   2.99551   1.23403 
 H(Fragment=2)         5.27247   5.27247   0.01 
 H(Fragment=2)         1.74753   1.74753   0.01 
 C(Fragment=2)         4.50447   4.50447   2.47332 
 C(Fragment=2)         4.02395   4.02395   3.68128 
 C(Fragment=2)         2.51553   2.51553   2.47332 
 C(Fragment=2)         2.99605   2.99605   3.68128 
 H(Fragment=2)         5.27219   5.27219   2.47393 
 H(Fragment=2)         1.74781   1.74781   2.47393 
 C(Fragment=2)         4.50612   4.50612   4.94359 
 C(Fragment=2)         4.01632   4.01632   6.11636 
 C(Fragment=2)         2.51388   2.51388   4.94359 
 C(Fragment=2)         3.00368   3.00368   6.11636 
 H(Fragment=2)         5.27336   5.27336   4.94326 
 H(Fragment=2)         4.39056   4.39056   7.06253 
 H(Fragment=2)         2.62944   2.62944   7.06253 
 H(Fragment=2)         1.74664   1.74664   4.94326 
 
 ITRead=  0  0  0  0  0  0  0  0  0  0  0  0  0  0  0  0  0  0  0  0
 ITRead=  0  0  0  0  0  0  0  0  0  0  0  0  0  0  0  0  0  0  0  0
 ITRead=  0  0  0  0  0  0  0  0  0  0  0  0  0  0  0  0  0  0  0  0
 ITRead=  0  0  0  0  0  0  0  0  0  0  0  0
 MicOpt= -1 -1 -1 -1 -1 -1 -1 -1 -1 -1 -1 -1 -1 -1 -1 -1 -1 -1 -1 -1
 MicOpt= -1 -1 -1 -1 -1 -1 -1 -1 -1 -1 -1 -1 -1 -1 -1 -1 -1 -1 -1 -1
 MicOpt= -1 -1 -1 -1 -1 -1 -1 -1 -1 -1 -1 -1 -1 -1 -1 -1 -1 -1 -1 -1
 MicOpt= -1 -1 -1 -1 -1 -1 -1 -1 -1 -1 -1 -1
 NAtoms=     72 NQM=       72 NQMF=       0 NMMI=      0 NMMIF=      0
                NMic=       0 NMicF=      0.
                    Isotopes and Nuclear Properties:
 (Nuclear quadrupole moments (NQMom) in fm**2, nuclear magnetic moments (NMagM)
  in nuclear magnetons)

  Atom         1           2           3           4           5           6           7           8           9          10
 IAtWgt=          12          12          12          12          12          12          12          12          12          12
 AtmWgt=  12.0000000  12.0000000  12.0000000  12.0000000  12.0000000  12.0000000  12.0000000  12.0000000  12.0000000  12.0000000
 NucSpn=           0           0           0           0           0           0           0           0           0           0
 AtZEff=   0.0000000   0.0000000   0.0000000   0.0000000   0.0000000   0.0000000   0.0000000   0.0000000   0.0000000   0.0000000
 NQMom=    0.0000000   0.0000000   0.0000000   0.0000000   0.0000000   0.0000000   0.0000000   0.0000000   0.0000000   0.0000000
 NMagM=    0.0000000   0.0000000   0.0000000   0.0000000   0.0000000   0.0000000   0.0000000   0.0000000   0.0000000   0.0000000
 AtZNuc=   6.0000000   6.0000000   6.0000000   6.0000000   6.0000000   6.0000000   6.0000000   6.0000000   6.0000000   6.0000000

  Atom        11          12          13          14          15          16          17          18          19          20
 IAtWgt=           1           1           1           1           1           1          12          12          12          12
 AtmWgt=   1.0078250   1.0078250   1.0078250   1.0078250   1.0078250   1.0078250  12.0000000  12.0000000  12.0000000  12.0000000
 NucSpn=           1           1           1           1           1           1           0           0           0           0
 AtZEff=   0.0000000   0.0000000   0.0000000   0.0000000   0.0000000   0.0000000   0.0000000   0.0000000   0.0000000   0.0000000
 NQMom=    0.0000000   0.0000000   0.0000000   0.0000000   0.0000000   0.0000000   0.0000000   0.0000000   0.0000000   0.0000000
 NMagM=    2.7928460   2.7928460   2.7928460   2.7928460   2.7928460   2.7928460   0.0000000   0.0000000   0.0000000   0.0000000
 AtZNuc=   1.0000000   1.0000000   1.0000000   1.0000000   1.0000000   1.0000000   6.0000000   6.0000000   6.0000000   6.0000000

  Atom        21          22          23          24          25          26          27          28          29          30
 IAtWgt=           1           1          12          12          12          12           1           1          12          12
 AtmWgt=   1.0078250   1.0078250  12.0000000  12.0000000  12.0000000  12.0000000   1.0078250   1.0078250  12.0000000  12.0000000
 NucSpn=           1           1           0           0           0           0           1           1           0           0
 AtZEff=   0.0000000   0.0000000   0.0000000   0.0000000   0.0000000   0.0000000   0.0000000   0.0000000   0.0000000   0.0000000
 NQMom=    0.0000000   0.0000000   0.0000000   0.0000000   0.0000000   0.0000000   0.0000000   0.0000000   0.0000000   0.0000000
 NMagM=    2.7928460   2.7928460   0.0000000   0.0000000   0.0000000   0.0000000   2.7928460   2.7928460   0.0000000   0.0000000
 AtZNuc=   1.0000000   1.0000000   6.0000000   6.0000000   6.0000000   6.0000000   1.0000000   1.0000000   6.0000000   6.0000000

  Atom        31          32          33          34          35          36          37          38          39          40
 IAtWgt=          12          12           1           1           1           1          12          12          12          12
 AtmWgt=  12.0000000  12.0000000   1.0078250   1.0078250   1.0078250   1.0078250  12.0000000  12.0000000  12.0000000  12.0000000
 NucSpn=           0           0           1           1           1           1           0           0           0           0
 AtZEff=   0.0000000   0.0000000   0.0000000   0.0000000   0.0000000   0.0000000   0.0000000   0.0000000   0.0000000   0.0000000
 NQMom=    0.0000000   0.0000000   0.0000000   0.0000000   0.0000000   0.0000000   0.0000000   0.0000000   0.0000000   0.0000000
 NMagM=    0.0000000   0.0000000   2.7928460   2.7928460   2.7928460   2.7928460   0.0000000   0.0000000   0.0000000   0.0000000
 AtZNuc=   6.0000000   6.0000000   1.0000000   1.0000000   1.0000000   1.0000000   6.0000000   6.0000000   6.0000000   6.0000000

  Atom        41          42          43          44          45          46          47          48          49          50
 IAtWgt=          12          12          12          12          12          12           1           1           1           1
 AtmWgt=  12.0000000  12.0000000  12.0000000  12.0000000  12.0000000  12.0000000   1.0078250   1.0078250   1.0078250   1.0078250
 NucSpn=           0           0           0           0           0           0           1           1           1           1
 AtZEff=   0.0000000   0.0000000   0.0000000   0.0000000   0.0000000   0.0000000   0.0000000   0.0000000   0.0000000   0.0000000
 NQMom=    0.0000000   0.0000000   0.0000000   0.0000000   0.0000000   0.0000000   0.0000000   0.0000000   0.0000000   0.0000000
 NMagM=    0.0000000   0.0000000   0.0000000   0.0000000   0.0000000   0.0000000   2.7928460   2.7928460   2.7928460   2.7928460
 AtZNuc=   6.0000000   6.0000000   6.0000000   6.0000000   6.0000000   6.0000000   1.0000000   1.0000000   1.0000000   1.0000000

  Atom        51          52          53          54          55          56          57          58          59          60
 IAtWgt=           1           1          12          12          12          12           1           1          12          12
 AtmWgt=   1.0078250   1.0078250  12.0000000  12.0000000  12.0000000  12.0000000   1.0078250   1.0078250  12.0000000  12.0000000
 NucSpn=           1           1           0           0           0           0           1           1           0           0
 AtZEff=   0.0000000   0.0000000   0.0000000   0.0000000   0.0000000   0.0000000   0.0000000   0.0000000   0.0000000   0.0000000
 NQMom=    0.0000000   0.0000000   0.0000000   0.0000000   0.0000000   0.0000000   0.0000000   0.0000000   0.0000000   0.0000000
 NMagM=    2.7928460   2.7928460   0.0000000   0.0000000   0.0000000   0.0000000   2.7928460   2.7928460   0.0000000   0.0000000
 AtZNuc=   1.0000000   1.0000000   6.0000000   6.0000000   6.0000000   6.0000000   1.0000000   1.0000000   6.0000000   6.0000000

  Atom        61          62          63          64          65          66          67          68          69          70
 IAtWgt=          12          12           1           1          12          12          12          12           1           1
 AtmWgt=  12.0000000  12.0000000   1.0078250   1.0078250  12.0000000  12.0000000  12.0000000  12.0000000   1.0078250   1.0078250
 NucSpn=           0           0           1           1           0           0           0           0           1           1
 AtZEff=   0.0000000   0.0000000   0.0000000   0.0000000   0.0000000   0.0000000   0.0000000   0.0000000   0.0000000   0.0000000
 NQMom=    0.0000000   0.0000000   0.0000000   0.0000000   0.0000000   0.0000000   0.0000000   0.0000000   0.0000000   0.0000000
 NMagM=    0.0000000   0.0000000   2.7928460   2.7928460   0.0000000   0.0000000   0.0000000   0.0000000   2.7928460   2.7928460
 AtZNuc=   6.0000000   6.0000000   1.0000000   1.0000000   6.0000000   6.0000000   6.0000000   6.0000000   1.0000000   1.0000000

  Atom        71          72
 IAtWgt=           1           1
 AtmWgt=   1.0078250   1.0078250
 NucSpn=           1           1
 AtZEff=   0.0000000   0.0000000
 NQMom=    0.0000000   0.0000000
 NMagM=    2.7928460   2.7928460
 AtZNuc=   1.0000000   1.0000000
 Leave Link  101 at Wed Sep 27 16:37:46 2023, MaxMem=  3221225472 cpu:               2.5 elap:               0.1
 (Enter /home/center/opt/aarch64/apps/gaussian16/c01/g16/l202.exe)
 Stoichiometry    C44H28
 Framework group  CS[SG(C4H4),X(C40H24)]
 Deg. of freedom   109
 Full point group                 CS      NOp   2
 Largest Abelian subgroup         CS      NOp   2
 Largest concise Abelian subgroup CS      NOp   2
                         Standard orientation:                         
 ---------------------------------------------------------------------
 Center     Atomic      Atomic             Coordinates (Angstroms)
 Number     Number       Type             X           Y           Z
 ---------------------------------------------------------------------
      1          6           0        0.726832   -2.474874    3.671276
      2          6           0       -0.726832   -2.474874    3.671276
      3          6           0        1.408733   -2.474874    4.933593
      4          6           0       -1.408734   -2.474874    4.933593
      5          6           0        0.716047   -2.474874    6.106357
      6          6           0       -0.716047   -2.474874    6.106357
      7          6           0        1.406391   -2.474874    2.463318
      8          6           0        0.727597   -2.474874    1.224029
      9          6           0       -1.406391   -2.474874    2.463317
     10          6           0       -0.727597   -2.474874    1.224029
     11          1           0        2.493762   -2.474874    4.933260
     12          1           0        2.492108   -2.474874    2.463929
     13          1           0       -2.492107   -2.474874    2.463929
     14          1           0       -2.493762   -2.474874    4.933260
     15          1           0       -1.245295   -2.474874    7.052528
     16          1           0        1.245295   -2.474874    7.052528
     17          6           0        1.406886   -2.474874    0.000000
     18          6           0        0.727597   -2.474874   -1.224029
     19          6           0       -1.406886   -2.474874    0.000000
     20          6           0       -0.727597   -2.474874   -1.224029
     21          1           0        2.492509   -2.474874    0.000000
     22          1           0       -2.492507   -2.474874    0.000000
     23          6           0        1.406391   -2.474874   -2.463318
     24          6           0        0.726832   -2.474874   -3.671276
     25          6           0       -1.406391   -2.474874   -2.463317
     26          6           0       -0.726832   -2.474874   -3.671276
     27          1           0        2.492108   -2.474874   -2.463929
     28          1           0       -2.492107   -2.474874   -2.463929
     29          6           0        1.408733   -2.474874   -4.933593
     30          6           0        0.716047   -2.474874   -6.106357
     31          6           0       -1.408734   -2.474874   -4.933593
     32          6           0       -0.716047   -2.474874   -6.106357
     33          1           0        2.493762   -2.474874   -4.933260
     34          1           0        1.245295   -2.474874   -7.052528
     35          1           0       -1.245295   -2.474874   -7.052528
     36          1           0       -2.493762   -2.474874   -4.933260
     37          6           0        0.000000    3.201706    3.671276
     38          6           0        0.000000    1.748042    3.671276
     39          6           0        0.000000    3.883607    4.933593
     40          6           0        0.000000    1.066140    4.933593
     41          6           0        0.000000    3.190920    6.106357
     42          6           0        0.000000    1.758827    6.106357
     43          6           0        0.000000    3.881265    2.463318
     44          6           0        0.000000    3.202470    1.224029
     45          6           0        0.000000    1.068483    2.463317
     46          6           0        0.000000    1.747277    1.224029
     47          1           0        0.000000    4.968636    4.933260
     48          1           0        0.000000    4.966982    2.463929
     49          1           0        0.000000   -0.017233    2.463929
     50          1           0        0.000000   -0.018888    4.933260
     51          1           0        0.000000    1.229578    7.052528
     52          1           0        0.000000    3.720169    7.052528
     53          6           0        0.000000    3.881760    0.000000
     54          6           0        0.000000    3.202470   -1.224029
     55          6           0        0.000000    1.067988    0.000000
     56          6           0        0.000000    1.747277   -1.224029
     57          1           0        0.000000    4.967383    0.000000
     58          1           0        0.000000   -0.017634    0.000000
     59          6           0        0.000000    3.881265   -2.463318
     60          6           0        0.000000    3.201706   -3.671276
     61          6           0        0.000000    1.068483   -2.463317
     62          6           0        0.000000    1.748042   -3.671276
     63          1           0        0.000000    4.966982   -2.463929
     64          1           0        0.000000   -0.017233   -2.463929
     65          6           0        0.000000    3.883607   -4.933593
     66          6           0        0.000000    3.190920   -6.106357
     67          6           0        0.000000    1.066140   -4.933593
     68          6           0        0.000000    1.758827   -6.106357
     69          1           0        0.000000    4.968636   -4.933260
     70          1           0        0.000000    3.720169   -7.052528
     71          1           0        0.000000    1.229578   -7.052528
     72          1           0        0.000000   -0.018888   -4.933260
 ---------------------------------------------------------------------
 Rotational constants (GHZ):           0.1211717           0.0563744           0.0408501
 Leave Link  202 at Wed Sep 27 16:37:48 2023, MaxMem=  3221225472 cpu:               0.7 elap:               0.0
 (Enter /home/center/opt/aarch64/apps/gaussian16/c01/g16/l122.exe)
 Counterpoise: doing full-system calculation.
 Leave Link  122 at Wed Sep 27 16:37:50 2023, MaxMem=  3221225472 cpu:               0.2 elap:               0.0
 (Enter /home/center/opt/aarch64/apps/gaussian16/c01/g16/l301.exe)
 Standard basis: 6-311G(d,p) (5D, 7F)
 Ernie: Thresh=  0.10000D-02 Tol=  0.10000D-05 Strict=F.
 There are   528 symmetry adapted cartesian basis functions of A'  symmetry.
 There are   476 symmetry adapted cartesian basis functions of A"  symmetry.
 There are   504 symmetry adapted basis functions of A'  symmetry.
 There are   456 symmetry adapted basis functions of A"  symmetry.
   960 basis functions,  1632 primitive gaussians,  1004 cartesian basis functions
   146 alpha electrons      146 beta electrons
       nuclear repulsion energy      4708.7787918324 Hartrees.
 IExCor=  402 DFT=T Ex+Corr=B3LYP ExCW=0 ScaHFX=  0.200000
 ScaDFX=  0.800000  0.720000  1.000000  0.810000 ScalE2=  1.000000  1.000000
 IRadAn=      5 IRanWt=     -1 IRanGd=            0 ICorTp=0 IEmpDi=131
 NAtoms=   72 NActive=   72 NUniq=   40 SFac= 3.24D+00 NAtFMM=   60 NAOKFM=T Big=F
 Integral buffers will be    131072 words long.
 Raffenetti 2 integral format.
 Two-electron integral symmetry is turned on.
 R6Disp:  Grimme-D3 Dispersion energy=       -0.0893369298 Hartrees.
 Nuclear repulsion after empirical dispersion term =     4708.6894549026 Hartrees.
 Leave Link  301 at Wed Sep 27 16:37:52 2023, MaxMem=  3221225472 cpu:               2.0 elap:               0.1
 (Enter /home/center/opt/aarch64/apps/gaussian16/c01/g16/l302.exe)
 NPDir=0 NMtPBC=     1 NCelOv=     1 NCel=       1 NClECP=     1 NCelD=      1
         NCelK=      1 NCelE2=     1 NClLst=     1 CellRange=     0.0.
 One-electron integrals computed using PRISM.
 One-electron integral symmetry used in STVInt
 NBasis=   960 RedAO= T EigKep=  3.77D-05  NBF=   504   456
 NBsUse=   960 1.00D-06 EigRej= -1.00D+00 NBFU=   504   456
 Precomputing XC quadrature grid using
 IXCGrd= 4 IRadAn=           5 IRanWt=          -1 IRanGd=           0 AccXCQ= 0.00D+00.
 Generated NRdTot=       0 NPtTot=           0 NUsed=           0 NTot=          32
 NSgBfM=   991   991   991   991   991 MxSgAt=    72 MxSgA2=    72.
 Leave Link  302 at Wed Sep 27 16:37:57 2023, MaxMem=  3221225472 cpu:              64.7 elap:               2.0
 (Enter /home/center/opt/aarch64/apps/gaussian16/c01/g16/l303.exe)
 DipDrv:  MaxL=1.
 Leave Link  303 at Wed Sep 27 16:37:59 2023, MaxMem=  3221225472 cpu:              13.8 elap:               0.4
 (Enter /home/center/opt/aarch64/apps/gaussian16/c01/g16/l401.exe)
 ExpMin= 1.03D-01 ExpMax= 4.56D+03 ExpMxC= 6.82D+02 IAcc=3 IRadAn=         5 AccDes= 0.00D+00
 Harris functional with IExCor=  402 and IRadAn=       5 diagonalized for initial guess.
 HarFok:  IExCor=  402 AccDes= 0.00D+00 IRadAn=         5 IDoV= 1 UseB2=F ITyADJ=14
 ICtDFT=  3500011 ScaDFX=  1.000000  1.000000  1.000000  1.000000
 FoFCou: FMM=F IPFlag=           0 FMFlag=      100000 FMFlg1=        2000
         NFxFlg=           0 DoJE=T BraDBF=F KetDBF=T FulRan=T
         wScrn=  0.000000 ICntrl=       500 IOpCl=  0 I1Cent=   200000004 NGrid=           0
         NMat0=    1 NMatS0=      1 NMatT0=    0 NMatD0=    1 NMtDS0=    0 NMtDT0=    0
 Petite list used in FoFCou.
 Harris En= -1694.13861092122    
 JPrj=0 DoOrth=F DoCkMO=F.
 Initial guess orbital symmetries:
       Occupied  (A") (A') (A") (A') (A') (A") (A") (A') (A") (A')
                 (A") (A') (A") (A') (A") (A') (A') (A") (A") (A')
                 (A") (A') (A") (A') (A') (A') (A') (A') (A") (A')
                 (A") (A') (A") (A') (A") (A") (A') (A') (A') (A")
                 (A") (A') (A') (A") (A') (A') (A") (A") (A') (A')
                 (A") (A") (A') (A') (A') (A') (A") (A") (A') (A')
                 (A") (A") (A") (A") (A') (A') (A') (A') (A") (A")
                 (A") (A") (A') (A') (A") (A") (A') (A') (A') (A')
                 (A') (A') (A") (A") (A") (A") (A') (A") (A") (A')
                 (A') (A') (A") (A") (A') (A') (A') (A') (A") (A")
                 (A') (A') (A") (A") (A") (A") (A') (A') (A') (A')
                 (A") (A") (A') (A') (A") (A") (A') (A') (A") (A")
                 (A") (A') (A") (A') (A') (A') (A") (A") (A') (A')
                 (A") (A") (A') (A') (A") (A") (A') (A') (A') (A')
                 (A") (A") (A") (A") (A') (A')
       Virtual   (A') (A') (A") (A") (A") (A") (A') (A') (A') (A')
                 (A") (A") (A') (A') (A") (A") (A') (A") (A') (A')
                 (A') (A') (A") (A') (A') (A") (A") (A') (A") (A")
                 (A') (A') (A") (A") (A') (A") (A') (A") (A') (A")
                 (A') (A') (A') (A") (A") (A') (A") (A') (A') (A')
                 (A') (A") (A') (A") (A') (A') (A") (A") (A') (A')
                 (A") (A") (A") (A") (A') (A') (A") (A') (A") (A")
                 (A') (A") (A') (A') (A") (A') (A") (A") (A') (A")
                 (A') (A') (A') (A') (A") (A") (A") (A') (A') (A')
                 (A") (A') (A') (A") (A") (A") (A') (A") (A") (A')
                 (A') (A') (A') (A") (A") (A') (A") (A') (A") (A')
                 (A') (A') (A") (A") (A') (A') (A") (A") (A') (A')
                 (A") (A') (A") (A") (A') (A") (A') (A') (A') (A")
                 (A") (A') (A") (A') (A") (A') (A") (A") (A') (A')
                 (A") (A') (A") (A") (A') (A') (A') (A") (A') (A')
                 (A') (A') (A") (A") (A') (A") (A") (A") (A') (A")
                 (A') (A") (A') (A") (A') (A") (A') (A') (A') (A")
                 (A') (A") (A') (A') (A") (A') (A") (A') (A") (A')
                 (A") (A") (A') (A') (A") (A') (A") (A") (A') (A')
                 (A") (A') (A') (A") (A') (A') (A') (A") (A") (A")
                 (A') (A") (A") (A') (A') (A') (A") (A") (A') (A')
                 (A") (A') (A') (A") (A") (A") (A") (A') (A") (A')
                 (A") (A") (A') (A') (A") (A') (A") (A') (A') (A')
                 (A') (A') (A") (A') (A") (A") (A') (A") (A") (A')
                 (A") (A') (A") (A') (A') (A') (A") (A") (A") (A')
                 (A') (A') (A") (A") (A") (A') (A") (A') (A') (A")
                 (A') (A") (A") (A') (A") (A') (A") (A') (A') (A")
                 (A") (A") (A') (A') (A') (A") (A") (A") (A') (A")
                 (A') (A') (A") (A') (A") (A') (A") (A') (A') (A')
                 (A") (A") (A') (A") (A") (A") (A') (A') (A") (A')
                 (A") (A") (A') (A') (A') (A') (A") (A") (A') (A")
                 (A") (A") (A') (A') (A') (A') (A') (A") (A') (A")
                 (A") (A') (A") (A') (A') (A") (A") (A') (A") (A")
                 (A') (A") (A') (A") (A") (A') (A') (A') (A") (A")
                 (A') (A') (A") (A') (A') (A") (A') (A") (A") (A')
                 (A') (A") (A') (A') (A') (A") (A") (A') (A') (A')
                 (A") (A') (A") (A') (A") (A') (A") (A") (A") (A')
                 (A") (A") (A") (A') (A') (A") (A') (A") (A') (A")
                 (A') (A') (A") (A') (A") (A') (A') (A') (A') (A")
                 (A") (A') (A') (A") (A') (A") (A") (A') (A') (A")
                 (A") (A") (A') (A') (A") (A') (A") (A") (A') (A')
                 (A') (A') (A') (A") (A') (A') (A') (A") (A") (A")
                 (A") (A') (A') (A") (A') (A") (A') (A') (A") (A")
                 (A') (A") (A') (A") (A') (A') (A") (A") (A") (A')
                 (A") (A") (A') (A") (A') (A') (A") (A") (A') (A')
                 (A") (A') (A') (A") (A') (A") (A") (A") (A') (A')
                 (A") (A') (A") (A') (A") (A') (A") (A') (A') (A")
                 (A") (A') (A') (A") (A') (A") (A') (A") (A') (A")
                 (A") (A') (A') (A') (A") (A") (A") (A") (A') (A")
                 (A") (A') (A') (A") (A") (A") (A') (A') (A') (A")
                 (A") (A') (A") (A') (A') (A") (A') (A') (A") (A')
                 (A") (A') (A') (A") (A") (A') (A") (A') (A") (A')
                 (A") (A') (A") (A") (A') (A') (A") (A') (A") (A')
                 (A') (A') (A") (A") (A') (A") (A") (A') (A") (A')
                 (A") (A") (A') (A') (A') (A") (A") (A') (A") (A")
                 (A") (A') (A') (A") (A') (A") (A') (A") (A') (A')
                 (A") (A') (A') (A") (A") (A') (A") (A') (A") (A")
                 (A') (A") (A') (A') (A') (A") (A') (A") (A") (A")
                 (A') (A') (A') (A') (A') (A") (A') (A') (A") (A')
                 (A') (A") (A') (A") (A") (A") (A") (A') (A") (A")
                 (A') (A') (A') (A') (A") (A') (A") (A") (A') (A')
                 (A") (A') (A') (A') (A") (A') (A") (A") (A") (A")
                 (A") (A') (A') (A') (A') (A") (A") (A') (A') (A")
                 (A') (A") (A") (A') (A') (A") (A') (A') (A') (A')
                 (A") (A") (A") (A") (A') (A") (A') (A") (A") (A')
                 (A') (A') (A') (A') (A") (A") (A') (A') (A') (A")
                 (A') (A") (A") (A") (A') (A") (A') (A') (A") (A')
                 (A") (A') (A') (A") (A") (A') (A") (A") (A') (A')
                 (A") (A') (A') (A") (A') (A") (A") (A') (A") (A")
                 (A') (A") (A') (A') (A') (A") (A") (A') (A') (A')
                 (A") (A") (A") (A') (A') (A") (A') (A") (A") (A')
                 (A") (A") (A') (A") (A') (A') (A') (A') (A") (A")
                 (A') (A') (A") (A") (A') (A") (A') (A') (A') (A")
                 (A') (A") (A') (A") (A') (A") (A") (A') (A') (A")
                 (A') (A") (A') (A") (A') (A') (A") (A') (A') (A')
                 (A") (A') (A") (A') (A") (A") (A') (A') (A") (A")
                 (A") (A') (A") (A') (A") (A") (A') (A") (A') (A")
                 (A') (A') (A") (A") (A') (A') (A') (A') (A") (A")
                 (A") (A') (A") (A') (A") (A') (A") (A') (A') (A')
                 (A") (A") (A") (A") (A') (A') (A') (A') (A") (A")
                 (A') (A') (A") (A") (A') (A') (A") (A') (A") (A')
                 (A') (A") (A') (A")
 The electronic state of the initial guess is 1-A'.
 Leave Link  401 at Wed Sep 27 16:38:04 2023, MaxMem=  3221225472 cpu:             106.4 elap:               2.7
 (Enter /home/center/opt/aarch64/apps/gaussian16/c01/g16/l502.exe)
 Integral symmetry usage will be decided dynamically.
 Closed shell SCF:
 Using DIIS extrapolation, IDIIS=  1040.
 NGot=  3221225472 LenX=  3219153746 LenY=  3218144726
 Requested convergence on RMS density matrix=1.00D-08 within 128 cycles.
 Requested convergence on MAX density matrix=1.00D-06.
 Requested convergence on             energy=1.00D-06.
 No special actions if energy rises.
 Fock matrices will be formed incrementally for  20 cycles.
 Integral accuracy reduced to 1.0D-05 until final iterations.

 Cycle   1  Pass 0  IDiag  1:
 FoFJK:  IHMeth= 1 ICntrl=       0 DoSepK=F KAlg= 0 I1Cent=           0 FoldK=F
 IRaf= 570000000 NMat=       1 IRICut=       1 DoRegI=T DoRafI=F ISym2E= 1 IDoP0=0 IntGTp=1.
 FoFCou: FMM=F IPFlag=           0 FMFlag=      100000 FMFlg1=        2000
         NFxFlg=           0 DoJE=F BraDBF=F KetDBF=F FulRan=T
         wScrn=  0.000000 ICntrl=         0 IOpCl=  0 I1Cent=           0 NGrid=           0
         NMat0=    1 NMatS0=      1 NMatT0=    0 NMatD0=    1 NMtDS0=    0 NMtDT0=    0
 Petite list used in FoFCou.
 E= -1693.18375829259    
 DIIS: error= 4.70D-02 at cycle   1 NSaved=   1.
 NSaved= 1 IEnMin= 1 EnMin= -1693.18375829259     IErMin= 1 ErrMin= 4.70D-02
 ErrMax= 4.70D-02  0.00D+00 EMaxC= 1.00D-01 BMatC= 8.94D-01 BMatP= 8.94D-01
 IDIUse=3 WtCom= 5.30D-01 WtEn= 4.70D-01
 Coeff-Com:  0.100D+01
 Coeff-En:   0.100D+01
 Coeff:      0.100D+01
 Gap=     0.060 Goal=   None    Shift=    0.000
 GapD=    0.060 DampG=0.500 DampE=0.500 DampFc=0.2500 IDamp=-1.
 Damping current iteration by 2.50D-01
 RMSDP=1.73D-03 MaxDP=8.40D-02              OVMax= 1.53D-01

 Cycle   2  Pass 0  IDiag  1:
 RMSU=  4.19D-04    CP:  9.82D-01
 E= -1693.49009576345     Delta-E=       -0.306337470860 Rises=F Damp=T
 DIIS: error= 2.76D-02 at cycle   2 NSaved=   2.
 NSaved= 2 IEnMin= 2 EnMin= -1693.49009576345     IErMin= 2 ErrMin= 2.76D-02
 ErrMax= 2.76D-02  0.00D+00 EMaxC= 1.00D-01 BMatC= 2.99D-01 BMatP= 8.94D-01
 IDIUse=3 WtCom= 7.24D-01 WtEn= 2.76D-01
 Coeff-Com: -0.122D+01 0.222D+01
 Coeff-En:   0.000D+00 0.100D+01
 Coeff:     -0.884D+00 0.188D+01
 Gap=     0.059 Goal=   None    Shift=    0.000
 RMSDP=6.89D-04 MaxDP=3.42D-02 DE=-3.06D-01 OVMax= 1.16D-01

 Cycle   3  Pass 0  IDiag  1:
 RMSU=  4.23D-04    CP:  9.56D-01  2.24D+00
 E= -1694.05049914357     Delta-E=       -0.560403380116 Rises=F Damp=F
 DIIS: error= 4.98D-03 at cycle   3 NSaved=   3.
 NSaved= 3 IEnMin= 3 EnMin= -1694.05049914357     IErMin= 3 ErrMin= 4.98D-03
 ErrMax= 4.98D-03  0.00D+00 EMaxC= 1.00D-01 BMatC= 1.23D-02 BMatP= 2.99D-01
 IDIUse=3 WtCom= 9.50D-01 WtEn= 4.98D-02
 Coeff-Com: -0.242D+00 0.508D+00 0.734D+00
 Coeff-En:   0.000D+00 0.000D+00 0.100D+01
 Coeff:     -0.230D+00 0.482D+00 0.748D+00
 Gap=     0.065 Goal=   None    Shift=    0.000
 RMSDP=2.60D-04 MaxDP=1.69D-02 DE=-5.60D-01 OVMax= 1.37D-01

 Cycle   4  Pass 0  IDiag  1:
 RMSU=  2.20D-04    CP:  9.58D-01  2.13D+00  6.90D-01
 E= -1694.04313948306     Delta-E=        0.007359660511 Rises=F Damp=F
 DIIS: error= 8.95D-03 at cycle   4 NSaved=   4.
 NSaved= 4 IEnMin= 3 EnMin= -1694.05049914357     IErMin= 3 ErrMin= 4.98D-03
 ErrMax= 8.95D-03  0.00D+00 EMaxC= 1.00D-01 BMatC= 1.69D-02 BMatP= 1.23D-02
 IDIUse=3 WtCom= 9.56D-02 WtEn= 9.04D-01
 Coeff-Com: -0.287D-01 0.984D-01 0.546D+00 0.384D+00
 Coeff-En:   0.000D+00 0.000D+00 0.589D+00 0.411D+00
 Coeff:     -0.274D-02 0.941D-02 0.585D+00 0.408D+00
 Gap=     0.060 Goal=   None    Shift=    0.000
 RMSDP=1.61D-04 MaxDP=1.18D-02 DE= 7.36D-03 OVMax= 1.11D-01

 Cycle   5  Pass 0  IDiag  1:
 RMSU=  7.69D-05    CP:  9.58D-01  2.11D+00  7.91D-01  3.89D-01
 E= -1694.06258115807     Delta-E=       -0.019441675013 Rises=F Damp=F
 DIIS: error= 2.44D-03 at cycle   5 NSaved=   5.
 NSaved= 5 IEnMin= 5 EnMin= -1694.06258115807     IErMin= 5 ErrMin= 2.44D-03
 ErrMax= 2.44D-03  0.00D+00 EMaxC= 1.00D-01 BMatC= 1.17D-03 BMatP= 1.23D-02
 IDIUse=3 WtCom= 9.76D-01 WtEn= 2.44D-02
 Coeff-Com: -0.163D-01 0.357D-01 0.259D+00 0.228D+00 0.493D+00
 Coeff-En:   0.000D+00 0.000D+00 0.000D+00 0.496D-02 0.995D+00
 Coeff:     -0.159D-01 0.348D-01 0.253D+00 0.222D+00 0.506D+00
 Gap=     0.061 Goal=   None    Shift=    0.000
 RMSDP=4.99D-05 MaxDP=3.96D-03 DE=-1.94D-02 OVMax= 3.41D-02

 Cycle   6  Pass 0  IDiag  1:
 RMSU=  2.98D-05    CP:  9.57D-01  2.15D+00  7.96D-01  4.70D-01  5.70D-01
 E= -1694.06349176282     Delta-E=       -0.000910604746 Rises=F Damp=F
 DIIS: error= 1.28D-03 at cycle   6 NSaved=   6.
 NSaved= 6 IEnMin= 6 EnMin= -1694.06349176282     IErMin= 6 ErrMin= 1.28D-03
 ErrMax= 1.28D-03  0.00D+00 EMaxC= 1.00D-01 BMatC= 3.30D-04 BMatP= 1.17D-03
 IDIUse=3 WtCom= 9.87D-01 WtEn= 1.28D-02
 Coeff-Com: -0.820D-02 0.122D-01 0.109D+00 0.108D+00 0.380D+00 0.399D+00
 Coeff-En:   0.000D+00 0.000D+00 0.000D+00 0.000D+00 0.255D+00 0.745D+00
 Coeff:     -0.810D-02 0.121D-01 0.108D+00 0.107D+00 0.378D+00 0.403D+00
 Gap=     0.061 Goal=   None    Shift=    0.000
 RMSDP=2.40D-05 MaxDP=1.72D-03 DE=-9.11D-04 OVMax= 1.34D-02

 Cycle   7  Pass 0  IDiag  1:
 RMSU=  8.49D-06    CP:  9.57D-01  2.15D+00  8.01D-01  4.50D-01  6.40D-01
                    CP:  2.90D-01
 E= -1694.06387916466     Delta-E=       -0.000387401847 Rises=F Damp=F
 DIIS: error= 3.61D-04 at cycle   7 NSaved=   7.
 NSaved= 7 IEnMin= 7 EnMin= -1694.06387916466     IErMin= 7 ErrMin= 3.61D-04
 ErrMax= 3.61D-04  0.00D+00 EMaxC= 1.00D-01 BMatC= 2.02D-05 BMatP= 3.30D-04
 IDIUse=3 WtCom= 9.96D-01 WtEn= 3.61D-03
 Coeff-Com: -0.323D-02 0.398D-02 0.540D-01 0.542D-01 0.211D+00 0.269D+00
 Coeff-Com:  0.411D+00
 Coeff-En:   0.000D+00 0.000D+00 0.000D+00 0.000D+00 0.000D+00 0.141D-01
 Coeff-En:   0.986D+00
 Coeff:     -0.322D-02 0.396D-02 0.538D-01 0.540D-01 0.210D+00 0.268D+00
 Coeff:      0.413D+00
 Gap=     0.061 Goal=   None    Shift=    0.000
 RMSDP=5.67D-06 MaxDP=2.64D-04 DE=-3.87D-04 OVMax= 1.73D-03

 Initial convergence to 1.0D-05 achieved.  Increase integral accuracy.
 Cycle   8  Pass 1  IDiag  1:
 E= -1694.06356640883     Delta-E=        0.000312755833 Rises=F Damp=F
 DIIS: error= 7.41D-04 at cycle   1 NSaved=   1.
 NSaved= 1 IEnMin= 1 EnMin= -1694.06356640883     IErMin= 1 ErrMin= 7.41D-04
 ErrMax= 7.41D-04  0.00D+00 EMaxC= 1.00D-01 BMatC= 4.02D-05 BMatP= 4.02D-05
 IDIUse=3 WtCom= 9.93D-01 WtEn= 7.41D-03
 Coeff-Com:  0.100D+01
 Coeff-En:   0.100D+01
 Coeff:      0.100D+01
 Gap=     0.061 Goal=   None    Shift=    0.000
 RMSDP=5.67D-06 MaxDP=2.64D-04 DE= 3.13D-04 OVMax= 1.01D-03

 Cycle   9  Pass 1  IDiag  1:
 RMSU=  2.59D-04    CP:  1.00D+00
 E= -1694.06360093071     Delta-E=       -0.000034521879 Rises=F Damp=F
 DIIS: error= 9.66D-05 at cycle   2 NSaved=   2.
 NSaved= 2 IEnMin= 2 EnMin= -1694.06360093071     IErMin= 2 ErrMin= 9.66D-05
 ErrMax= 9.66D-05  0.00D+00 EMaxC= 1.00D-01 BMatC= 2.01D-06 BMatP= 4.02D-05
 IDIUse=1 WtCom= 1.00D+00 WtEn= 0.00D+00
 Coeff-Com:  0.638D-01 0.936D+00
 Coeff:      0.638D-01 0.936D+00
 Gap=     0.061 Goal=   None    Shift=    0.000
 RMSDP=4.59D-06 MaxDP=2.48D-04 DE=-3.45D-05 OVMax= 1.64D-03

 Cycle  10  Pass 1  IDiag  1:
 RMSU=  4.15D-06    CP:  1.00D+00  1.01D+00
 E= -1694.06359485637     Delta-E=        0.000006074335 Rises=F Damp=F
 DIIS: error= 1.97D-04 at cycle   3 NSaved=   3.
 NSaved= 3 IEnMin= 2 EnMin= -1694.06360093071     IErMin= 2 ErrMin= 9.66D-05
 ErrMax= 1.97D-04  0.00D+00 EMaxC= 1.00D-01 BMatC= 7.11D-06 BMatP= 2.01D-06
 IDIUse=3 WtCom= 4.16D-01 WtEn= 5.84D-01
 Coeff-Com: -0.197D-02 0.656D+00 0.346D+00
 Coeff-En:   0.000D+00 0.740D+00 0.260D+00
 Coeff:     -0.818D-03 0.705D+00 0.296D+00
 Gap=     0.061 Goal=   None    Shift=    0.000
 RMSDP=2.72D-06 MaxDP=1.71D-04 DE= 6.07D-06 OVMax= 1.35D-03

 Cycle  11  Pass 1  IDiag  1:
 RMSU=  9.46D-07    CP:  1.00D+00  1.01D+00  3.95D-01
 E= -1694.06360280828     Delta-E=       -0.000007951906 Rises=F Damp=F
 DIIS: error= 2.74D-05 at cycle   4 NSaved=   4.
 NSaved= 4 IEnMin= 4 EnMin= -1694.06360280828     IErMin= 4 ErrMin= 2.74D-05
 ErrMax= 2.74D-05  0.00D+00 EMaxC= 1.00D-01 BMatC= 2.73D-07 BMatP= 2.01D-06
 IDIUse=1 WtCom= 1.00D+00 WtEn= 0.00D+00
 Coeff-Com: -0.348D-02 0.445D+00 0.196D+00 0.363D+00
 Coeff:     -0.348D-02 0.445D+00 0.196D+00 0.363D+00
 Gap=     0.061 Goal=   None    Shift=    0.000
 RMSDP=5.25D-07 MaxDP=3.30D-05 DE=-7.95D-06 OVMax= 1.98D-04

 Cycle  12  Pass 1  IDiag  1:
 RMSU=  3.10D-07    CP:  1.00D+00  1.01D+00  3.45D-01  6.14D-01
 E= -1694.06360307626     Delta-E=       -0.000000267981 Rises=F Damp=F
 DIIS: error= 5.59D-06 at cycle   5 NSaved=   5.
 NSaved= 5 IEnMin= 5 EnMin= -1694.06360307626     IErMin= 5 ErrMin= 5.59D-06
 ErrMax= 5.59D-06  0.00D+00 EMaxC= 1.00D-01 BMatC= 4.39D-09 BMatP= 2.73D-07
 IDIUse=1 WtCom= 1.00D+00 WtEn= 0.00D+00
 Coeff-Com: -0.214D-02 0.261D+00 0.115D+00 0.223D+00 0.403D+00
 Coeff:     -0.214D-02 0.261D+00 0.115D+00 0.223D+00 0.403D+00
 Gap=     0.061 Goal=   None    Shift=    0.000
 RMSDP=9.25D-08 MaxDP=5.78D-06 DE=-2.68D-07 OVMax= 5.16D-05

 Cycle  13  Pass 1  IDiag  1:
 RMSU=  8.26D-08    CP:  1.00D+00  1.01D+00  3.48D-01  6.25D-01  8.77D-01
 E= -1694.06360308117     Delta-E=       -0.000000004907 Rises=F Damp=F
 DIIS: error= 1.81D-06 at cycle   6 NSaved=   6.
 NSaved= 6 IEnMin= 6 EnMin= -1694.06360308117     IErMin= 6 ErrMin= 1.81D-06
 ErrMax= 1.81D-06  0.00D+00 EMaxC= 1.00D-01 BMatC= 5.70D-10 BMatP= 4.39D-09
 IDIUse=1 WtCom= 1.00D+00 WtEn= 0.00D+00
 Coeff-Com: -0.809D-03 0.954D-01 0.424D-01 0.829D-01 0.266D+00 0.514D+00
 Coeff:     -0.809D-03 0.954D-01 0.424D-01 0.829D-01 0.266D+00 0.514D+00
 Gap=     0.061 Goal=   None    Shift=    0.000
 RMSDP=2.96D-08 MaxDP=2.10D-06 DE=-4.91D-09 OVMax= 1.86D-05

 Cycle  14  Pass 1  IDiag  1:
 RMSU=  1.71D-08    CP:  1.00D+00  1.01D+00  3.49D-01  6.15D-01  9.16D-01
                    CP:  7.83D-01
 E= -1694.06360308183     Delta-E=       -0.000000000664 Rises=F Damp=F
 DIIS: error= 2.95D-07 at cycle   7 NSaved=   7.
 NSaved= 7 IEnMin= 7 EnMin= -1694.06360308183     IErMin= 7 ErrMin= 2.95D-07
 ErrMax= 2.95D-07  0.00D+00 EMaxC= 1.00D-01 BMatC= 2.53D-11 BMatP= 5.70D-10
 IDIUse=1 WtCom= 1.00D+00 WtEn= 0.00D+00
 Coeff-Com: -0.191D-03 0.218D-01 0.931D-02 0.212D-01 0.796D-01 0.232D+00
 Coeff-Com:  0.636D+00
 Coeff:     -0.191D-03 0.218D-01 0.931D-02 0.212D-01 0.796D-01 0.232D+00
 Coeff:      0.636D+00
 Gap=     0.061 Goal=   None    Shift=    0.000
 RMSDP=7.88D-09 MaxDP=2.90D-07 DE=-6.64D-10 OVMax= 1.93D-06

 SCF Done:  E(RB3LYP) =  -1694.06360308     A.U. after   14 cycles
            NFock= 14  Conv=0.79D-08     -V/T= 2.0044
 KE= 1.686716976903D+03 PE=-1.334795966629D+04 EE= 5.258489631401D+03
 Leave Link  502 at Wed Sep 27 16:39:47 2023, MaxMem=  3221225472 cpu:            3646.8 elap:             100.3
 (Enter /home/center/opt/aarch64/apps/gaussian16/c01/g16/l601.exe)
 Copying SCF densities to generalized density rwf, IOpCl= 0 IROHF=0.

 **********************************************************************

            Population analysis using the SCF Density.

 **********************************************************************

 Orbital symmetries:
       Occupied  (A") (A') (A') (A") (A") (A') (A') (A") (A') (A')
                 (A') (A") (A") (A') (A") (A') (A') (A") (A') (A")
                 (A") (A') (A") (A') (A") (A') (A') (A") (A') (A")
                 (A") (A') (A") (A') (A') (A") (A') (A") (A') (A')
                 (A") (A') (A") (A') (A') (A") (A') (A") (A') (A')
                 (A") (A") (A') (A') (A") (A') (A') (A") (A') (A")
                 (A') (A") (A") (A") (A') (A') (A') (A') (A") (A")
                 (A') (A") (A") (A") (A') (A') (A") (A') (A') (A')
                 (A') (A") (A") (A') (A") (A") (A') (A") (A') (A')
                 (A") (A') (A") (A") (A') (A') (A") (A') (A") (A')
                 (A") (A') (A') (A') (A') (A') (A") (A") (A") (A')
                 (A') (A') (A") (A") (A") (A") (A") (A') (A") (A')
                 (A') (A') (A') (A") (A") (A') (A') (A") (A") (A')
                 (A") (A") (A') (A") (A') (A') (A") (A') (A') (A')
                 (A") (A") (A") (A") (A') (A')
       Virtual   (A') (A') (A") (A") (A") (A") (A') (A') (A') (A")
                 (A') (A') (A") (A') (A') (A") (A') (A') (A") (A")
                 (A') (A') (A") (A") (A') (A") (A') (A") (A") (A')
                 (A") (A') (A") (A') (A') (A") (A") (A') (A") (A')
                 (A') (A') (A') (A") (A") (A') (A") (A') (A") (A")
                 (A') (A') (A') (A') (A') (A') (A') (A") (A") (A")
                 (A') (A") (A") (A") (A') (A") (A') (A") (A') (A")
                 (A') (A") (A') (A') (A') (A") (A") (A') (A") (A')
                 (A") (A') (A') (A') (A") (A') (A") (A') (A') (A")
                 (A") (A") (A') (A') (A') (A') (A") (A") (A') (A')
                 (A") (A") (A') (A") (A') (A") (A") (A') (A") (A")
                 (A') (A') (A") (A') (A") (A') (A') (A") (A') (A")
                 (A') (A") (A') (A') (A') (A") (A') (A') (A") (A')
                 (A') (A") (A") (A') (A') (A") (A') (A") (A") (A')
                 (A') (A') (A") (A') (A') (A") (A") (A") (A") (A')
                 (A') (A") (A') (A") (A") (A') (A") (A') (A') (A")
                 (A') (A") (A') (A") (A") (A') (A') (A') (A") (A")
                 (A') (A') (A') (A') (A") (A") (A") (A") (A') (A")
                 (A") (A') (A') (A") (A') (A') (A") (A") (A') (A")
                 (A") (A') (A') (A') (A') (A') (A") (A") (A') (A")
                 (A") (A') (A') (A") (A') (A') (A") (A") (A') (A')
                 (A") (A') (A") (A") (A') (A') (A") (A') (A") (A")
                 (A") (A') (A") (A') (A') (A") (A') (A") (A') (A')
                 (A') (A") (A") (A') (A') (A") (A') (A") (A") (A')
                 (A") (A') (A') (A') (A") (A") (A') (A") (A') (A")
                 (A') (A') (A") (A") (A") (A') (A") (A') (A') (A")
                 (A') (A') (A") (A") (A") (A') (A') (A') (A") (A")
                 (A") (A') (A") (A') (A") (A") (A') (A') (A") (A')
                 (A") (A') (A') (A") (A") (A') (A') (A") (A') (A")
                 (A') (A") (A') (A") (A') (A') (A') (A") (A") (A")
                 (A') (A") (A") (A') (A') (A') (A") (A') (A") (A')
                 (A') (A") (A") (A') (A") (A") (A') (A") (A') (A')
                 (A') (A") (A") (A') (A') (A") (A") (A") (A") (A')
                 (A') (A") (A") (A') (A') (A") (A') (A") (A') (A')
                 (A") (A') (A') (A") (A') (A") (A') (A') (A") (A")
                 (A') (A') (A') (A") (A') (A") (A') (A") (A') (A')
                 (A") (A") (A') (A') (A') (A") (A") (A') (A") (A")
                 (A") (A') (A") (A") (A') (A") (A') (A") (A") (A')
                 (A') (A") (A') (A') (A') (A') (A") (A") (A') (A')
                 (A') (A") (A') (A") (A") (A') (A") (A') (A') (A")
                 (A") (A") (A') (A') (A") (A') (A") (A') (A') (A")
                 (A') (A') (A") (A') (A') (A') (A") (A') (A") (A")
                 (A') (A') (A") (A") (A') (A") (A") (A') (A') (A")
                 (A') (A") (A') (A') (A") (A") (A") (A") (A') (A')
                 (A') (A") (A") (A") (A') (A") (A") (A') (A') (A')
                 (A") (A') (A") (A') (A") (A') (A") (A") (A') (A')
                 (A") (A') (A") (A') (A") (A') (A") (A') (A') (A")
                 (A') (A') (A") (A") (A") (A') (A') (A") (A") (A')
                 (A') (A") (A') (A') (A") (A") (A") (A") (A') (A")
                 (A") (A') (A") (A") (A') (A') (A") (A") (A') (A')
                 (A") (A') (A") (A') (A") (A') (A') (A') (A") (A')
                 (A") (A") (A') (A') (A") (A') (A') (A") (A") (A')
                 (A") (A") (A') (A") (A') (A') (A") (A') (A") (A")
                 (A') (A") (A') (A') (A") (A") (A") (A') (A') (A')
                 (A') (A") (A") (A') (A') (A") (A") (A") (A') (A")
                 (A") (A') (A") (A") (A') (A') (A') (A") (A') (A')
                 (A") (A') (A') (A") (A") (A") (A') (A") (A') (A')
                 (A") (A') (A') (A') (A") (A') (A') (A') (A") (A")
                 (A") (A") (A") (A') (A') (A') (A") (A') (A") (A')
                 (A') (A") (A") (A') (A") (A") (A") (A') (A') (A')
                 (A') (A') (A") (A') (A') (A') (A") (A") (A") (A')
                 (A') (A") (A") (A") (A') (A') (A") (A') (A") (A')
                 (A') (A') (A') (A") (A') (A') (A") (A") (A") (A')
                 (A") (A") (A') (A") (A') (A") (A') (A') (A") (A')
                 (A") (A') (A') (A") (A') (A") (A") (A') (A") (A')
                 (A') (A") (A') (A') (A") (A") (A') (A") (A') (A')
                 (A') (A") (A") (A") (A') (A') (A") (A') (A") (A')
                 (A') (A") (A") (A') (A") (A') (A") (A") (A') (A')
                 (A') (A') (A") (A") (A') (A") (A") (A') (A") (A")
                 (A') (A') (A") (A") (A') (A') (A') (A') (A") (A")
                 (A") (A') (A") (A') (A") (A') (A') (A") (A") (A')
                 (A") (A") (A') (A") (A') (A') (A') (A") (A') (A")
                 (A') (A') (A") (A') (A") (A') (A") (A') (A") (A')
                 (A') (A") (A') (A") (A') (A") (A') (A") (A") (A')
                 (A') (A") (A') (A") (A') (A') (A") (A') (A') (A")
                 (A') (A') (A") (A") (A') (A") (A') (A') (A") (A")
                 (A") (A') (A") (A") (A') (A') (A") (A") (A') (A")
                 (A') (A') (A") (A") (A') (A') (A') (A') (A") (A")
                 (A") (A') (A") (A') (A") (A') (A") (A') (A') (A')
                 (A") (A") (A") (A") (A') (A') (A") (A') (A') (A')
                 (A") (A") (A') (A') (A") (A") (A') (A') (A") (A')
                 (A') (A") (A') (A")
 The electronic state is 1-A'.
 Alpha  occ. eigenvalues --  -10.19807 -10.19807 -10.19771 -10.19770 -10.19684
 Alpha  occ. eigenvalues --  -10.19684 -10.19647 -10.19647 -10.18831 -10.18830
 Alpha  occ. eigenvalues --  -10.18767 -10.18767 -10.18767 -10.18766 -10.18613
 Alpha  occ. eigenvalues --  -10.18613 -10.18601 -10.18601 -10.18544 -10.18544
 Alpha  occ. eigenvalues --  -10.18515 -10.18515 -10.17853 -10.17853 -10.17812
 Alpha  occ. eigenvalues --  -10.17812 -10.17744 -10.17743 -10.17658 -10.17658
 Alpha  occ. eigenvalues --  -10.16965 -10.16965 -10.16880 -10.16880 -10.16843
 Alpha  occ. eigenvalues --  -10.16842 -10.16840 -10.16755 -10.16755 -10.16729
 Alpha  occ. eigenvalues --  -10.16685 -10.16684 -10.16590 -10.16590  -0.90274
 Alpha  occ. eigenvalues --   -0.88759  -0.88251  -0.86801  -0.86423  -0.84499
 Alpha  occ. eigenvalues --   -0.83275  -0.81374  -0.80652  -0.79369  -0.79112
 Alpha  occ. eigenvalues --   -0.78713  -0.77484  -0.77231  -0.76776  -0.75104
 Alpha  occ. eigenvalues --   -0.74920  -0.73681  -0.73212  -0.71836  -0.69990
 Alpha  occ. eigenvalues --   -0.68211  -0.68088  -0.66296  -0.63523  -0.63159
 Alpha  occ. eigenvalues --   -0.61902  -0.61669  -0.61338  -0.60732  -0.60062
 Alpha  occ. eigenvalues --   -0.60006  -0.58875  -0.58451  -0.58235  -0.56648
 Alpha  occ. eigenvalues --   -0.53503  -0.53343  -0.53041  -0.51681  -0.51508
 Alpha  occ. eigenvalues --   -0.51260  -0.50396  -0.49294  -0.48588  -0.47877
 Alpha  occ. eigenvalues --   -0.47509  -0.46834  -0.46277  -0.46276  -0.46160
 Alpha  occ. eigenvalues --   -0.45588  -0.44861  -0.44703  -0.44427  -0.43901
 Alpha  occ. eigenvalues --   -0.43278  -0.42920  -0.42551  -0.42341  -0.42321
 Alpha  occ. eigenvalues --   -0.41733  -0.41609  -0.41520  -0.41163  -0.40741
 Alpha  occ. eigenvalues --   -0.40518  -0.40344  -0.40245  -0.39611  -0.39322
 Alpha  occ. eigenvalues --   -0.38930  -0.38564  -0.37562  -0.37251  -0.37076
 Alpha  occ. eigenvalues --   -0.36278  -0.35732  -0.35346  -0.34890  -0.34529
 Alpha  occ. eigenvalues --   -0.34133  -0.33811  -0.33482  -0.33034  -0.32591
 Alpha  occ. eigenvalues --   -0.32480  -0.31941  -0.31696  -0.30606  -0.30461
 Alpha  occ. eigenvalues --   -0.29218  -0.28535  -0.27548  -0.27423  -0.25506
 Alpha  occ. eigenvalues --   -0.25377  -0.23496  -0.23361  -0.21468  -0.18784
 Alpha  occ. eigenvalues --   -0.16723
 Alpha virt. eigenvalues --   -0.10624  -0.08694  -0.05324  -0.03667  -0.03433
 Alpha virt. eigenvalues --   -0.01718  -0.01015   0.00862   0.01222   0.01472
 Alpha virt. eigenvalues --    0.02231   0.03087   0.03297   0.03719   0.03966
 Alpha virt. eigenvalues --    0.03979   0.04817   0.05622   0.05874   0.05983
 Alpha virt. eigenvalues --    0.06134   0.06895   0.07292   0.07471   0.07808
 Alpha virt. eigenvalues --    0.08349   0.08717   0.09308   0.09667   0.09893
 Alpha virt. eigenvalues --    0.10403   0.11129   0.11387   0.11588   0.11928
 Alpha virt. eigenvalues --    0.13108   0.13127   0.13289   0.13391   0.14091
 Alpha virt. eigenvalues --    0.14579   0.15114   0.16172   0.16532   0.17228
 Alpha virt. eigenvalues --    0.17780   0.18195   0.18281   0.18970   0.19851
 Alpha virt. eigenvalues --    0.20173   0.20209   0.22017   0.22162   0.23670
 Alpha virt. eigenvalues --    0.23970   0.24195   0.24240   0.24909   0.25140
 Alpha virt. eigenvalues --    0.25385   0.26317   0.26798   0.26870   0.26910
 Alpha virt. eigenvalues --    0.27397   0.27504   0.28375   0.28623   0.28684
 Alpha virt. eigenvalues --    0.29133   0.29451   0.29453   0.29927   0.30256
 Alpha virt. eigenvalues --    0.30326   0.30725   0.31243   0.31935   0.32027
 Alpha virt. eigenvalues --    0.32997   0.33464   0.33822   0.34087   0.34241
 Alpha virt. eigenvalues --    0.34722   0.34803   0.35213   0.35392   0.35800
 Alpha virt. eigenvalues --    0.36164   0.36884   0.37151   0.37715   0.38293
 Alpha virt. eigenvalues --    0.38371   0.38671   0.38862   0.38893   0.38925
 Alpha virt. eigenvalues --    0.39413   0.39551   0.39749   0.39759   0.39951
 Alpha virt. eigenvalues --    0.39974   0.40158   0.40559   0.41117   0.41219
 Alpha virt. eigenvalues --    0.41667   0.42064   0.42321   0.42501   0.42533
 Alpha virt. eigenvalues --    0.42842   0.43151   0.43347   0.43410   0.44266
 Alpha virt. eigenvalues --    0.44510   0.44636   0.44675   0.44781   0.44984
 Alpha virt. eigenvalues --    0.45132   0.45161   0.45461   0.45742   0.45948
 Alpha virt. eigenvalues --    0.45951   0.46039   0.46236   0.46634   0.46848
 Alpha virt. eigenvalues --    0.46980   0.47056   0.47460   0.48007   0.49022
 Alpha virt. eigenvalues --    0.49124   0.49463   0.49571   0.50258   0.50368
 Alpha virt. eigenvalues --    0.50373   0.50402   0.50569   0.50937   0.51582
 Alpha virt. eigenvalues --    0.51756   0.52111   0.52358   0.52514   0.52593
 Alpha virt. eigenvalues --    0.53505   0.53628   0.54782   0.54786   0.55649
 Alpha virt. eigenvalues --    0.55726   0.56438   0.56881   0.57306   0.57615
 Alpha virt. eigenvalues --    0.58118   0.58172   0.58551   0.58659   0.58901
 Alpha virt. eigenvalues --    0.59316   0.59753   0.60500   0.60717   0.60980
 Alpha virt. eigenvalues --    0.61325   0.61690   0.61769   0.61961   0.62115
 Alpha virt. eigenvalues --    0.62438   0.63121   0.63124   0.63244   0.63526
 Alpha virt. eigenvalues --    0.63639   0.63857   0.64001   0.64648   0.64650
 Alpha virt. eigenvalues --    0.65127   0.65257   0.65515   0.66236   0.66654
 Alpha virt. eigenvalues --    0.66657   0.66682   0.66738   0.67718   0.67978
 Alpha virt. eigenvalues --    0.68106   0.68370   0.69970   0.70083   0.70709
 Alpha virt. eigenvalues --    0.71025   0.71655   0.72320   0.72370   0.72775
 Alpha virt. eigenvalues --    0.72936   0.73086   0.73733   0.73838   0.74253
 Alpha virt. eigenvalues --    0.74394   0.74646   0.76386   0.76536   0.76935
 Alpha virt. eigenvalues --    0.77585   0.77680   0.78098   0.78310   0.79109
 Alpha virt. eigenvalues --    0.79338   0.79344   0.79811   0.80634   0.80774
 Alpha virt. eigenvalues --    0.80905   0.81142   0.81975   0.82406   0.82494
 Alpha virt. eigenvalues --    0.82768   0.82936   0.83279   0.83847   0.83932
 Alpha virt. eigenvalues --    0.84034   0.84057   0.84711   0.85269   0.85805
 Alpha virt. eigenvalues --    0.86683   0.87017   0.87133   0.88795   0.88910
 Alpha virt. eigenvalues --    0.89433   0.90289   0.90345   0.90949   0.91640
 Alpha virt. eigenvalues --    0.92458   0.93554   0.93604   0.94160   0.95021
 Alpha virt. eigenvalues --    0.95533   0.95974   0.96116   0.96599   0.97600
 Alpha virt. eigenvalues --    0.97677   0.98040   0.98444   0.98889   0.99246
 Alpha virt. eigenvalues --    0.99625   1.00116   1.01127   1.01729   1.01742
 Alpha virt. eigenvalues --    1.02425   1.02514   1.03291   1.03555   1.03735
 Alpha virt. eigenvalues --    1.03865   1.04547   1.04835   1.05057   1.05339
 Alpha virt. eigenvalues --    1.05641   1.05662   1.05699   1.06565   1.06665
 Alpha virt. eigenvalues --    1.07243   1.07297   1.07328   1.07847   1.07865
 Alpha virt. eigenvalues --    1.08721   1.08985   1.09566   1.09568   1.09673
 Alpha virt. eigenvalues --    1.10165   1.10184   1.11130   1.11916   1.12332
 Alpha virt. eigenvalues --    1.12529   1.12688   1.13647   1.13713   1.13915
 Alpha virt. eigenvalues --    1.14551   1.14598   1.15507   1.15699   1.16514
 Alpha virt. eigenvalues --    1.16605   1.17321   1.17773   1.18590   1.18846
 Alpha virt. eigenvalues --    1.18972   1.19926   1.21447   1.21805   1.22113
 Alpha virt. eigenvalues --    1.22705   1.22706   1.25084   1.25410   1.25610
 Alpha virt. eigenvalues --    1.27157   1.27346   1.27418   1.28352   1.29813
 Alpha virt. eigenvalues --    1.31418   1.31469   1.31579   1.32046   1.33054
 Alpha virt. eigenvalues --    1.33221   1.34393   1.36025   1.36556   1.36910
 Alpha virt. eigenvalues --    1.39048   1.39295   1.39637   1.39751   1.40575
 Alpha virt. eigenvalues --    1.41432   1.41506   1.42072   1.42076   1.43092
 Alpha virt. eigenvalues --    1.43539   1.44036   1.44410   1.44494   1.45375
 Alpha virt. eigenvalues --    1.46147   1.46414   1.47012   1.47468   1.47933
 Alpha virt. eigenvalues --    1.48147   1.48325   1.48419   1.48789   1.49149
 Alpha virt. eigenvalues --    1.49245   1.50135   1.50565   1.50653   1.50892
 Alpha virt. eigenvalues --    1.51025   1.51085   1.52118   1.52202   1.53175
 Alpha virt. eigenvalues --    1.53420   1.53431   1.53449   1.53759   1.55118
 Alpha virt. eigenvalues --    1.55610   1.55658   1.55868   1.55903   1.56512
 Alpha virt. eigenvalues --    1.57388   1.57824   1.58834   1.59001   1.59511
 Alpha virt. eigenvalues --    1.59899   1.59945   1.60695   1.61789   1.62184
 Alpha virt. eigenvalues --    1.62272   1.62678   1.62881   1.63081   1.65336
 Alpha virt. eigenvalues --    1.65829   1.65892   1.66473   1.67851   1.67972
 Alpha virt. eigenvalues --    1.68430   1.68767   1.70634   1.70909   1.71341
 Alpha virt. eigenvalues --    1.71622   1.71663   1.71802   1.72739   1.73025
 Alpha virt. eigenvalues --    1.73608   1.73845   1.73889   1.73950   1.74150
 Alpha virt. eigenvalues --    1.74324   1.75038   1.75228   1.76461   1.76741
 Alpha virt. eigenvalues --    1.77531   1.77929   1.78458   1.79719   1.80018
 Alpha virt. eigenvalues --    1.80279   1.80344   1.81714   1.81743   1.81949
 Alpha virt. eigenvalues --    1.82132   1.82361   1.83165   1.83189   1.83757
 Alpha virt. eigenvalues --    1.84278   1.84285   1.84440   1.84940   1.85788
 Alpha virt. eigenvalues --    1.86569   1.86715   1.87028   1.87218   1.87468
 Alpha virt. eigenvalues --    1.87610   1.87938   1.88787   1.89036   1.89073
 Alpha virt. eigenvalues --    1.89364   1.90137   1.90279   1.90283   1.91460
 Alpha virt. eigenvalues --    1.91518   1.92210   1.92371   1.92551   1.92859
 Alpha virt. eigenvalues --    1.93031   1.93491   1.93673   1.93742   1.94381
 Alpha virt. eigenvalues --    1.94432   1.94941   1.95156   1.95764   1.95969
 Alpha virt. eigenvalues --    1.96425   1.96509   1.96664   1.97900   1.98085
 Alpha virt. eigenvalues --    1.99290   2.00486   2.00829   2.02024   2.02337
 Alpha virt. eigenvalues --    2.02443   2.03040   2.03171   2.03506   2.03600
 Alpha virt. eigenvalues --    2.07215   2.07510   2.08138   2.08422   2.09186
 Alpha virt. eigenvalues --    2.10235   2.10889   2.11016   2.11406   2.12265
 Alpha virt. eigenvalues --    2.12749   2.13697   2.14270   2.14505   2.15285
 Alpha virt. eigenvalues --    2.16172   2.16696   2.16933   2.18144   2.18598
 Alpha virt. eigenvalues --    2.18824   2.19079   2.20137   2.22189   2.22572
 Alpha virt. eigenvalues --    2.22717   2.22855   2.23333   2.23585   2.23820
 Alpha virt. eigenvalues --    2.25401   2.25983   2.26361   2.26481   2.26972
 Alpha virt. eigenvalues --    2.27130   2.27225   2.27682   2.28138   2.28652
 Alpha virt. eigenvalues --    2.28707   2.30199   2.30433   2.31714   2.33556
 Alpha virt. eigenvalues --    2.34998   2.35569   2.35995   2.37404   2.38572
 Alpha virt. eigenvalues --    2.38586   2.40176   2.40574   2.40935   2.42026
 Alpha virt. eigenvalues --    2.42897   2.43098   2.44737   2.44926   2.45043
 Alpha virt. eigenvalues --    2.45184   2.46076   2.47322   2.47413   2.49725
 Alpha virt. eigenvalues --    2.51793   2.52883   2.53224   2.53769   2.54185
 Alpha virt. eigenvalues --    2.54824   2.55891   2.56978   2.57114   2.58370
 Alpha virt. eigenvalues --    2.59072   2.59260   2.59667   2.60051   2.60749
 Alpha virt. eigenvalues --    2.61170   2.61339   2.61507   2.61515   2.61851
 Alpha virt. eigenvalues --    2.61946   2.63236   2.63395   2.63404   2.63936
 Alpha virt. eigenvalues --    2.64110   2.64127   2.64710   2.65438   2.65888
 Alpha virt. eigenvalues --    2.66478   2.66493   2.66620   2.66791   2.66894
 Alpha virt. eigenvalues --    2.67098   2.67467   2.67704   2.68314   2.68476
 Alpha virt. eigenvalues --    2.68713   2.68845   2.69201   2.69791   2.69923
 Alpha virt. eigenvalues --    2.70107   2.70115   2.70376   2.72226   2.72527
 Alpha virt. eigenvalues --    2.72680   2.72997   2.73161   2.73496   2.73550
 Alpha virt. eigenvalues --    2.74015   2.74337   2.74758   2.74805   2.74944
 Alpha virt. eigenvalues --    2.75385   2.75524   2.75846   2.76481   2.77497
 Alpha virt. eigenvalues --    2.77827   2.78019   2.78096   2.78220   2.79507
 Alpha virt. eigenvalues --    2.79633   2.79782   2.79964   2.81109   2.83034
 Alpha virt. eigenvalues --    2.83083   2.83299   2.84366   2.84575   2.84620
 Alpha virt. eigenvalues --    2.86219   2.87213   2.87663   2.88159   2.88446
 Alpha virt. eigenvalues --    2.89377   2.89981   2.90267   2.91448   2.91819
 Alpha virt. eigenvalues --    2.93169   2.93905   2.94589   2.94592   2.94788
 Alpha virt. eigenvalues --    2.96626   2.97676   2.98530   2.98613   2.98735
 Alpha virt. eigenvalues --    2.99707   3.00001   3.00870   3.02001   3.03332
 Alpha virt. eigenvalues --    3.05246   3.05554   3.06032   3.07379   3.08621
 Alpha virt. eigenvalues --    3.09776   3.09984   3.16100   3.16274   3.17218
 Alpha virt. eigenvalues --    3.17660   3.18131   3.18632   3.19157   3.20792
 Alpha virt. eigenvalues --    3.21331   3.22193   3.24530   3.25507   3.30231
 Alpha virt. eigenvalues --    3.31041   3.31270   3.31417   3.31510   3.33494
 Alpha virt. eigenvalues --    3.35379   3.36789   3.36802   3.37205   3.37323
 Alpha virt. eigenvalues --    3.37683   3.37782   3.39174   3.39374   3.40107
 Alpha virt. eigenvalues --    3.40765   3.41368   3.42893   3.43351   3.44753
 Alpha virt. eigenvalues --    3.44796   3.46343   3.46925   3.49469   3.49554
 Alpha virt. eigenvalues --    3.50730   3.51722   3.52553   3.53121   3.53501
 Alpha virt. eigenvalues --    3.55449   3.56866   3.58675   3.58927   3.60281
 Alpha virt. eigenvalues --    3.62236   3.62830   3.62916   3.64172   3.64447
 Alpha virt. eigenvalues --    3.64588   3.66515   3.66953   3.68164   3.68304
 Alpha virt. eigenvalues --    3.69087   3.72092   3.73572   3.74125   4.00265
 Alpha virt. eigenvalues --    4.00270   4.01169   4.01498   4.02191   4.02241
 Alpha virt. eigenvalues --    4.03195   4.03504   4.15493   4.16028   4.17614
 Alpha virt. eigenvalues --    4.19215   4.19772   4.20604   4.20626   4.21738
 Alpha virt. eigenvalues --    4.21798   4.23595   4.24036   4.26280   4.26575
 Alpha virt. eigenvalues --    4.29715   4.38470   4.41259   4.62370   4.64784
 Alpha virt. eigenvalues --    4.78353   4.78994   4.79757   4.81171   4.81501
 Alpha virt. eigenvalues --    4.81829   4.82285   4.83141   4.85391   4.85503
 Alpha virt. eigenvalues --   23.40849  23.46726  23.55732  23.62890  23.70101
 Alpha virt. eigenvalues --   23.76468  23.77010  23.79794  23.81052  23.81272
 Alpha virt. eigenvalues --   23.83223  23.85511  23.86743  23.88103  23.88398
 Alpha virt. eigenvalues --   23.90041  23.91369  23.91436  23.92680  23.95745
 Alpha virt. eigenvalues --   23.96701  23.98820  23.99050  24.00415  24.08994
 Alpha virt. eigenvalues --   24.09497  24.10281  24.10717  24.11173  24.11415
 Alpha virt. eigenvalues --   24.11785  24.12972  24.13553  24.13952  24.15180
 Alpha virt. eigenvalues --   24.15210  24.15232  24.15845  24.16856  24.16885
 Alpha virt. eigenvalues --   24.19728  24.19772  24.21695  24.21764
          Condensed to atoms (all electrons):
 Mulliken charges:
               1
     1  C   -0.073672
     2  C   -0.073672
     3  C   -0.055139
     4  C   -0.055139
     5  C   -0.095995
     6  C   -0.095995
     7  C   -0.010600
     8  C   -0.069073
     9  C   -0.010600
    10  C   -0.069073
    11  H    0.085302
    12  H    0.077442
    13  H    0.077442
    14  H    0.085302
    15  H    0.098361
    16  H    0.098361
    17  C   -0.015111
    18  C   -0.069073
    19  C   -0.015111
    20  C   -0.069073
    21  H    0.076151
    22  H    0.076151
    23  C   -0.010600
    24  C   -0.073672
    25  C   -0.010600
    26  C   -0.073672
    27  H    0.077442
    28  H    0.077442
    29  C   -0.055139
    30  C   -0.095995
    31  C   -0.055139
    32  C   -0.095995
    33  H    0.085302
    34  H    0.098361
    35  H    0.098361
    36  H    0.085302
    37  C   -0.015287
    38  C   -0.141012
    39  C   -0.064799
    40  C   -0.027973
    41  C   -0.085598
    42  C   -0.130716
    43  C   -0.033011
    44  C   -0.003120
    45  C    0.013513
    46  C   -0.148247
    47  H    0.077825
    48  H    0.069359
    49  H    0.126645
    50  H    0.132283
    51  H    0.083251
    52  H    0.090227
    53  C   -0.037211
    54  C   -0.003120
    55  C    0.009657
    56  C   -0.148247
    57  H    0.067971
    58  H    0.124325
    59  C   -0.033011
    60  C   -0.015287
    61  C    0.013513
    62  C   -0.141012
    63  H    0.069359
    64  H    0.126645
    65  C   -0.064799
    66  C   -0.085598
    67  C   -0.027973
    68  C   -0.130716
    69  H    0.077825
    70  H    0.090227
    71  H    0.083251
    72  H    0.132283
 Sum of Mulliken charges =   0.00000
 Mulliken charges with hydrogens summed into heavy atoms:
               1
     1  C   -0.073672
     2  C   -0.073672
     3  C    0.030163
     4  C    0.030163
     5  C    0.002366
     6  C    0.002366
     7  C    0.066842
     8  C   -0.069073
     9  C    0.066842
    10  C   -0.069073
    17  C    0.061040
    18  C   -0.069073
    19  C    0.061040
    20  C   -0.069073
    23  C    0.066842
    24  C   -0.073672
    25  C    0.066842
    26  C   -0.073672
    29  C    0.030163
    30  C    0.002366
    31  C    0.030163
    32  C    0.002366
    37  C   -0.015287
    38  C   -0.141012
    39  C    0.013026
    40  C    0.104311
    41  C    0.004629
    42  C   -0.047465
    43  C    0.036348
    44  C   -0.003120
    45  C    0.140158
    46  C   -0.148247
    53  C    0.030760
    54  C   -0.003120
    55  C    0.133981
    56  C   -0.148247
    59  C    0.036348
    60  C   -0.015287
    61  C    0.140158
    62  C   -0.141012
    65  C    0.013026
    66  C    0.004629
    67  C    0.104311
    68  C   -0.047465
         Mulliken charges condensed to fragments:
      1     -0.051419
      2      0.051419
 Electronic spatial extent (au):  <R**2>=          24985.7891
 Charge=              0.0000 electrons
 Dipole moment (field-independent basis, Debye):
    X=              0.0000    Y=             -1.8468    Z=              0.0000  Tot=              1.8468
 Quadrupole moment (field-independent basis, Debye-Ang):
   XX=           -245.3728   YY=           -250.0376   ZZ=           -220.3486
   XY=              0.0000   XZ=              0.0000   YZ=              0.0000
 Traceless Quadrupole moment (field-independent basis, Debye-Ang):
   XX=             -6.7865   YY=            -11.4513   ZZ=             18.2377
   XY=              0.0000   XZ=              0.0000   YZ=              0.0000
 Octapole moment (field-independent basis, Debye-Ang**2):
  XXX=              0.0000  YYY=            161.6811  ZZZ=              0.0000  XYY=              0.0000
  XXY=            -69.2291  XXZ=              0.0000  XZZ=              0.0000  YZZ=            -40.5289
  YYZ=              0.0000  XYZ=              0.0000
 Hexadecapole moment (field-independent basis, Debye-Ang**3):
 XXXX=          -1255.0624 YYYY=         -10428.5654 ZZZZ=         -21075.7549 XXXY=              0.0000
 XXXZ=              0.0000 YYYX=              0.0000 YYYZ=              0.0000 ZZZX=              0.0000
 ZZZY=              0.0000 XXYY=          -2017.7491 XXZZ=          -4154.0050 YYZZ=          -5561.1254
 XXYZ=              0.0000 YYXZ=              0.0000 ZZXY=              0.0000
 N-N= 4.708689454903D+03 E-N=-1.334795967645D+04  KE= 1.686716976903D+03
 Symmetry A'   KE= 9.134466326429D+02
 Symmetry A"   KE= 7.732703442601D+02
 No NMR shielding tensors so no spin-rotation constants.
 Leave Link  601 at Wed Sep 27 16:39:51 2023, MaxMem=  3221225472 cpu:              50.1 elap:               1.3
 (Enter /home/center/opt/aarch64/apps/gaussian16/c01/g16/l122.exe)
 CPIOFr:  IOpCl= 0 IRwI=-1 IRwCP=  731 ICalc= -1 LCPTot=     1419224 Len1MO=     3708034 IndFrg=     1419224
 CPIOFr:  IOpCl= 0 IRwI=-1 IRwCP=  731 ICalc=  0 LCPTot=     1419224 Len1MO=     3708034 IndFrg=     5127258
 Counterpoise: doing calculation for fragment   1 using the basis set of the full-system, NewBq=T
 Leave Link  122 at Wed Sep 27 16:39:53 2023, MaxMem=  3221225472 cpu:               8.4 elap:               0.4
 (Enter /home/center/opt/aarch64/apps/gaussian16/c01/g16/l301.exe)
 Basis read from rwf:  (5D, 7F)
 No pseudopotential information found on rwf file.
 There are   528 symmetry adapted cartesian basis functions of A'  symmetry.
 There are   476 symmetry adapted cartesian basis functions of A"  symmetry.
 There are   504 symmetry adapted basis functions of A'  symmetry.
 There are   456 symmetry adapted basis functions of A"  symmetry.
   960 basis functions,  1632 primitive gaussians,  1004 cartesian basis functions
    73 alpha electrons       73 beta electrons
       nuclear repulsion energy      1494.3575060302 Hartrees.
 IExCor=  402 DFT=T Ex+Corr=B3LYP ExCW=0 ScaHFX=  0.200000
 ScaDFX=  0.800000  0.720000  1.000000  0.810000 ScalE2=  1.000000  1.000000
 IRadAn=      5 IRanWt=     -1 IRanGd=            0 ICorTp=0 IEmpDi=131
 NAtoms=   72 NActive=   72 NUniq=   40 SFac= 3.24D+00 NAtFMM=   60 NAOKFM=T Big=F
 Integral buffers will be    131072 words long.
 Raffenetti 2 integral format.
 Two-electron integral symmetry is turned on.
 R6Disp:  Grimme-D3 Dispersion energy=       -0.0303938888 Hartrees.
 Nuclear repulsion after empirical dispersion term =     1494.3271121414 Hartrees.
 No density basis found on file    718.
 Leave Link  301 at Wed Sep 27 16:39:56 2023, MaxMem=  3221225472 cpu:              13.5 elap:               0.4
 (Enter /home/center/opt/aarch64/apps/gaussian16/c01/g16/l302.exe)
 NPDir=0 NMtPBC=     1 NCelOv=     1 NCel=       1 NClECP=     1 NCelD=      1
         NCelK=      1 NCelE2=     1 NClLst=     1 CellRange=     0.0.
 One-electron integrals computed using PRISM.
 One-electron integral symmetry used in STVInt
 NBasis=   960 RedAO= T EigKep=  3.77D-05  NBF=   504   456
 NBsUse=   960 1.00D-06 EigRej= -1.00D+00 NBFU=   504   456
 Precomputing XC quadrature grid using
 IXCGrd= 4 IRadAn=           5 IRanWt=          -1 IRanGd=           0 AccXCQ= 0.00D+00.
 Generated NRdTot=       0 NPtTot=           0 NUsed=           0 NTot=          32
 NSgBfM=   991   991   991   991   991 MxSgAt=    72 MxSgA2=    72.
 Leave Link  302 at Wed Sep 27 16:40:00 2023, MaxMem=  3221225472 cpu:              60.0 elap:               1.6
 (Enter /home/center/opt/aarch64/apps/gaussian16/c01/g16/l303.exe)
 DipDrv:  MaxL=1.
 Leave Link  303 at Wed Sep 27 16:40:03 2023, MaxMem=  3221225472 cpu:              12.8 elap:               0.4
 (Enter /home/center/opt/aarch64/apps/gaussian16/c01/g16/l401.exe)
 ExpMin= 1.03D-01 ExpMax= 4.56D+03 ExpMxC= 6.82D+02 IAcc=3 IRadAn=         5 AccDes= 0.00D+00
 Harris functional with IExCor=  402 and IRadAn=       5 diagonalized for initial guess.
 HarFok:  IExCor=  402 AccDes= 0.00D+00 IRadAn=         5 IDoV= 1 UseB2=F ITyADJ=14
 ICtDFT=  3500011 ScaDFX=  1.000000  1.000000  1.000000  1.000000
 FoFCou: FMM=F IPFlag=           0 FMFlag=      100000 FMFlg1=        2000
         NFxFlg=           0 DoJE=T BraDBF=F KetDBF=T FulRan=T
         wScrn=  0.000000 ICntrl=       500 IOpCl=  0 I1Cent=   200000004 NGrid=           0
         NMat0=    1 NMatS0=      1 NMatT0=    0 NMatD0=    1 NMtDS0=    0 NMtDT0=    0
 Petite list used in FoFCou.
 Harris En= -847.067473528410    
 JPrj=0 DoOrth=F DoCkMO=F.
 Initial guess orbital symmetries:
       Occupied  (A") (A') (A') (A") (A") (A') (A") (A') (A') (A")
                 (A") (A') (A') (A') (A") (A') (A") (A') (A") (A')
                 (A') (A") (A') (A") (A') (A") (A') (A') (A") (A')
                 (A") (A") (A') (A') (A") (A") (A') (A") (A') (A')
                 (A') (A") (A") (A") (A') (A') (A") (A') (A') (A")
                 (A') (A") (A") (A') (A') (A") (A') (A") (A') (A")
                 (A") (A') (A') (A") (A') (A") (A') (A") (A') (A')
                 (A") (A") (A')
       Virtual   (A') (A") (A") (A') (A') (A") (A') (A") (A') (A")
                 (A') (A') (A") (A') (A") (A') (A') (A") (A') (A")
                 (A") (A") (A') (A') (A') (A") (A') (A') (A") (A')
                 (A') (A") (A") (A') (A') (A") (A') (A") (A") (A')
                 (A') (A") (A") (A') (A") (A') (A") (A') (A") (A')
                 (A') (A") (A') (A') (A") (A') (A") (A") (A') (A')
                 (A') (A") (A') (A') (A") (A") (A") (A") (A') (A')
                 (A") (A') (A") (A') (A') (A') (A') (A") (A') (A")
                 (A') (A") (A") (A") (A') (A") (A") (A') (A') (A')
                 (A") (A") (A") (A') (A') (A') (A') (A') (A') (A")
                 (A') (A") (A") (A') (A") (A") (A') (A") (A') (A')
                 (A') (A") (A') (A") (A') (A") (A") (A") (A') (A")
                 (A') (A") (A') (A") (A') (A') (A') (A") (A") (A')
                 (A') (A") (A') (A') (A') (A") (A") (A') (A") (A')
                 (A') (A") (A") (A') (A') (A") (A") (A") (A') (A")
                 (A') (A") (A') (A') (A") (A') (A") (A') (A') (A")
                 (A') (A") (A') (A") (A') (A') (A") (A") (A') (A')
                 (A") (A") (A") (A') (A') (A') (A") (A") (A') (A")
                 (A') (A') (A") (A") (A") (A') (A') (A") (A') (A")
                 (A') (A') (A') (A") (A') (A') (A") (A") (A') (A')
                 (A") (A") (A") (A') (A") (A') (A') (A") (A") (A')
                 (A') (A") (A') (A") (A") (A") (A') (A') (A') (A")
                 (A") (A') (A') (A") (A') (A") (A') (A') (A") (A')
                 (A") (A') (A") (A') (A") (A') (A") (A") (A') (A')
                 (A") (A') (A") (A') (A') (A") (A") (A') (A") (A")
                 (A") (A') (A') (A') (A') (A") (A") (A') (A') (A")
                 (A") (A') (A') (A") (A') (A') (A") (A") (A') (A")
                 (A') (A') (A") (A") (A') (A") (A') (A") (A') (A')
                 (A") (A") (A') (A") (A') (A") (A') (A") (A") (A')
                 (A') (A') (A') (A") (A') (A") (A") (A') (A') (A")
                 (A') (A") (A') (A') (A') (A") (A") (A") (A") (A')
                 (A') (A") (A') (A") (A') (A') (A") (A") (A') (A")
                 (A') (A") (A') (A") (A") (A') (A') (A") (A') (A')
                 (A') (A') (A") (A') (A") (A') (A") (A') (A") (A")
                 (A') (A") (A") (A') (A") (A") (A') (A') (A') (A')
                 (A') (A") (A") (A') (A') (A') (A") (A') (A") (A")
                 (A') (A') (A") (A') (A") (A') (A") (A") (A') (A")
                 (A') (A") (A") (A") (A') (A") (A') (A') (A") (A')
                 (A') (A") (A") (A') (A') (A") (A') (A') (A") (A")
                 (A') (A') (A") (A") (A") (A') (A') (A") (A') (A")
                 (A') (A') (A') (A") (A") (A") (A") (A') (A') (A')
                 (A") (A") (A') (A') (A') (A") (A") (A') (A') (A")
                 (A") (A') (A") (A") (A') (A") (A") (A") (A") (A')
                 (A') (A') (A') (A') (A') (A") (A") (A') (A') (A")
                 (A') (A') (A') (A") (A') (A") (A") (A") (A") (A')
                 (A") (A') (A') (A") (A") (A") (A') (A") (A') (A')
                 (A") (A') (A') (A") (A') (A") (A') (A') (A") (A")
                 (A') (A') (A") (A") (A") (A") (A') (A') (A') (A")
                 (A") (A') (A") (A') (A') (A") (A') (A') (A") (A")
                 (A") (A') (A') (A") (A') (A') (A") (A") (A') (A")
                 (A") (A') (A') (A") (A') (A") (A') (A") (A') (A')
                 (A") (A") (A") (A') (A") (A') (A') (A") (A") (A')
                 (A') (A") (A') (A') (A") (A') (A") (A') (A') (A")
                 (A') (A") (A") (A') (A") (A') (A') (A") (A') (A")
                 (A') (A') (A') (A") (A") (A') (A") (A") (A') (A')
                 (A') (A") (A") (A') (A') (A") (A") (A') (A") (A')
                 (A') (A") (A") (A') (A") (A') (A") (A') (A') (A")
                 (A') (A') (A") (A") (A') (A') (A") (A') (A') (A")
                 (A") (A') (A") (A") (A') (A") (A") (A') (A") (A')
                 (A') (A') (A') (A") (A') (A") (A') (A") (A") (A')
                 (A') (A") (A") (A") (A') (A') (A") (A') (A") (A')
                 (A') (A") (A') (A") (A') (A") (A') (A") (A') (A')
                 (A') (A") (A") (A") (A') (A") (A') (A") (A") (A')
                 (A") (A") (A') (A") (A') (A") (A') (A') (A') (A")
                 (A') (A") (A') (A") (A') (A") (A') (A") (A') (A")
                 (A') (A") (A") (A') (A') (A") (A") (A") (A') (A')
                 (A") (A') (A") (A") (A') (A") (A') (A') (A") (A')
                 (A') (A") (A") (A') (A") (A') (A') (A") (A') (A')
                 (A") (A') (A") (A') (A') (A') (A") (A') (A") (A")
                 (A') (A") (A') (A') (A") (A") (A") (A') (A') (A')
                 (A") (A") (A') (A") (A') (A") (A') (A') (A") (A')
                 (A") (A') (A") (A') (A") (A') (A') (A") (A') (A')
                 (A") (A') (A") (A") (A") (A') (A') (A') (A') (A")
                 (A") (A") (A') (A") (A') (A") (A') (A") (A") (A')
                 (A") (A') (A") (A') (A") (A') (A") (A') (A") (A')
                 (A') (A") (A') (A') (A") (A') (A") (A') (A") (A')
                 (A') (A") (A') (A") (A") (A') (A') (A') (A") (A")
                 (A") (A') (A') (A") (A') (A') (A") (A') (A") (A')
                 (A") (A') (A') (A") (A") (A") (A') (A") (A') (A')
                 (A") (A') (A") (A") (A') (A") (A') (A') (A") (A')
                 (A") (A') (A") (A') (A") (A') (A") (A') (A') (A")
                 (A") (A') (A') (A") (A') (A") (A") (A') (A") (A')
[...]
                 (A') (A') (A") (A') (A") (A') (A') (A') (A') (A")
                 (A") (A") (A") (A') (A') (A") (A') (A") (A') (A")
                 (A') (A') (A') (A") (A') (A") (A") (A') (A') (A")
                 (A") (A') (A') (A") (A') (A") (A") (A") (A') (A")
                 (A') (A') (A') (A') (A') (A") (A') (A') (A") (A")
                 (A") (A') (A') (A') (A") (A') (A") (A") (A") (A')
                 (A') (A") (A') (A") (A") (A') (A") (A') (A') (A')
                 (A') (A') (A") (A") (A") (A") (A') (A") (A') (A")
                 (A') (A') (A') (A") (A") (A') (A') (A") (A') (A")
                 (A') (A") (A") (A") (A') (A') (A") (A') (A') (A")
                 (A') (A") (A") (A') (A') (A") (A') (A") (A') (A")
                 (A") (A') (A') (A') (A') (A") (A") (A") (A') (A")
                 (A') (A") (A') (A") (A') (A') (A") (A") (A') (A")
                 (A') (A") (A') (A") (A') (A') (A") (A') (A") (A")
                 (A') (A") (A') (A') (A") (A") (A') (A") (A') (A")
                 (A') (A') (A") (A') (A') (A") (A") (A') (A') (A')
                 (A") (A') (A") (A") (A") (A") (A') (A") (A') (A')
                 (A") (A') (A") (A') (A') (A') (A") (A') (A") (A')
                 (A") (A") (A') (A') (A") (A") (A') (A') (A") (A')
                 (A') (A') (A') (A") (A") (A") (A") (A') (A') (A")
                 (A') (A") (A") (A') (A") (A') (A") (A') (A") (A')
                 (A") (A') (A') (A") (A') (A") (A") (A') (A') (A")
                 (A") (A') (A') (A") (A") (A') (A") (A") (A") (A')
                 (A') (A") (A') (A') (A") (A') (A') (A") (A') (A")
                 (A") (A') (A") (A') (A') (A") (A") (A") (A') (A')
                 (A") (A') (A') (A") (A") (A") (A') (A") (A') (A')
                 (A") (A') (A") (A') (A") (A') (A') (A') (A") (A')
                 (A") (A") (A') (A') (A") (A") (A') (A") (A') (A")
                 (A') (A') (A") (A") (A') (A') (A") (A') (A') (A')
                 (A") (A") (A') (A") (A') (A") (A') (A") (A') (A')
                 (A') (A") (A") (A") (A') (A") (A') (A') (A') (A")
                 (A") (A') (A") (A') (A') (A") (A') (A") (A") (A')
                 (A') (A") (A') (A") (A") (A') (A') (A") (A') (A")
                 (A') (A") (A') (A") (A') (A") (A") (A') (A') (A")
                 (A') (A") (A') (A') (A") (A") (A') (A") (A') (A')
                 (A") (A') (A") (A') (A') (A") (A') (A") (A') (A")
                 (A") (A') (A") (A') (A") (A') (A") (A') (A') (A")
                 (A") (A') (A") (A') (A') (A") (A") (A') (A') (A")
                 (A') (A") (A') (A") (A') (A') (A")
 The electronic state is 1-A'.
 Alpha  occ. eigenvalues --  -10.18931 -10.18930 -10.18896 -10.18895 -10.18848
 Alpha  occ. eigenvalues --  -10.18848 -10.18813 -10.18813 -10.17956 -10.17955
 Alpha  occ. eigenvalues --  -10.17920 -10.17920 -10.17919 -10.17919 -10.17875
 Alpha  occ. eigenvalues --  -10.17875 -10.17863 -10.17863 -10.17808 -10.17808
 Alpha  occ. eigenvalues --  -10.17781 -10.17781  -0.89340  -0.87865  -0.85549
 Alpha  occ. eigenvalues --   -0.82415  -0.79820  -0.78521  -0.78314  -0.75991
 Alpha  occ. eigenvalues --   -0.74255  -0.72901  -0.69196  -0.67344  -0.62728
 Alpha  occ. eigenvalues --   -0.62370  -0.61108  -0.59964  -0.59301  -0.57689
 Alpha  occ. eigenvalues --   -0.52709  -0.52573  -0.52293  -0.49654  -0.48513
 Alpha  occ. eigenvalues --   -0.47160  -0.46110  -0.45590  -0.45476  -0.43928
 Alpha  occ. eigenvalues --   -0.43182  -0.42578  -0.41808  -0.41572  -0.41386
 Alpha  occ. eigenvalues --   -0.40692  -0.40405  -0.39579  -0.38193  -0.36732
 Alpha  occ. eigenvalues --   -0.36341  -0.35550  -0.34094  -0.33809  -0.33058
 Alpha  occ. eigenvalues --   -0.32930  -0.31612  -0.29665  -0.28406  -0.26623
 Alpha  occ. eigenvalues --   -0.24364  -0.22582  -0.17855
 Alpha virt. eigenvalues --   -0.09755  -0.04464  -0.02747  -0.00147   0.02073
 Alpha virt. eigenvalues --    0.02370   0.03189   0.04746   0.04859   0.04871
 Alpha virt. eigenvalues --    0.06161   0.06575   0.07968   0.08162   0.08303
 Alpha virt. eigenvalues --    0.09607   0.10049   0.11524   0.11533   0.13796
 Alpha virt. eigenvalues --    0.14111   0.14670   0.18092   0.18194   0.18832
 Alpha virt. eigenvalues --    0.19391   0.22815   0.23002   0.24379   0.24942
 Alpha virt. eigenvalues --    0.25581   0.27528   0.27575   0.28012   0.28228
 Alpha virt. eigenvalues --    0.28947   0.29389   0.30158   0.30759   0.31175
 Alpha virt. eigenvalues --    0.32897   0.34528   0.36420   0.36484   0.37134
 Alpha virt. eigenvalues --    0.37503   0.37629   0.37651   0.38116   0.38643
 Alpha virt. eigenvalues --    0.39094   0.39439   0.39739   0.40236   0.40435
 Alpha virt. eigenvalues --    0.41918   0.41926   0.41940   0.42289   0.42318
 Alpha virt. eigenvalues --    0.42643   0.43748   0.44233   0.44835   0.45295
 Alpha virt. eigenvalues --    0.45683   0.45924   0.45953   0.46379   0.47165
 Alpha virt. eigenvalues --    0.47805   0.47809   0.47978   0.48073   0.48231
 Alpha virt. eigenvalues --    0.48568   0.49414   0.49572   0.51377   0.51846
 Alpha virt. eigenvalues --    0.52370   0.53118   0.53671   0.55998   0.57923
 Alpha virt. eigenvalues --    0.57955   0.59048   0.59201   0.60433   0.60585
 Alpha virt. eigenvalues --    0.60693   0.61101   0.61690   0.62105   0.62173
 Alpha virt. eigenvalues --    0.63432   0.63481   0.64458   0.64535   0.65533
 Alpha virt. eigenvalues --    0.66693   0.66910   0.67680   0.67724   0.70658
 Alpha virt. eigenvalues --    0.71305   0.71405   0.71494   0.72803   0.73989
 Alpha virt. eigenvalues --    0.75405   0.75894   0.76289   0.77801   0.77809
 Alpha virt. eigenvalues --    0.78943   0.79160   0.79723   0.81162   0.81509
 Alpha virt. eigenvalues --    0.82881   0.83001   0.84383   0.84585   0.84713
 Alpha virt. eigenvalues --    0.88087   0.89711   0.89765   0.91536   0.92083
 Alpha virt. eigenvalues --    0.92578   0.93749   0.95806   0.96107   0.96442
 Alpha virt. eigenvalues --    0.96590   0.96905   0.98547   1.00356   1.01118
 Alpha virt. eigenvalues --    1.02686   1.03027   1.03354   1.04405   1.05244
 Alpha virt. eigenvalues --    1.05439   1.05525   1.05950   1.07395   1.07547
 Alpha virt. eigenvalues --    1.07686   1.08438   1.10005   1.10036   1.12070
 Alpha virt. eigenvalues --    1.13223   1.13544   1.13650   1.14526   1.15341
 Alpha virt. eigenvalues --    1.17432   1.18332   1.19657   1.20432   1.23014
 Alpha virt. eigenvalues --    1.23618   1.27884   1.28234   1.30579   1.32076
 Alpha virt. eigenvalues --    1.32743   1.34942   1.37641   1.39236   1.39896
 Alpha virt. eigenvalues --    1.39942   1.40725   1.42751   1.43476   1.43554
 Alpha virt. eigenvalues --    1.45057   1.46086   1.47119   1.47538   1.48841
 Alpha virt. eigenvalues --    1.49280   1.49417   1.50258   1.50674   1.52268
 Alpha virt. eigenvalues --    1.52650   1.53402   1.54331   1.54372   1.54781
 Alpha virt. eigenvalues --    1.54807   1.57107   1.57715   1.58569   1.59882
 Alpha virt. eigenvalues --    1.60106   1.62692   1.63242   1.64856   1.66641
 Alpha virt. eigenvalues --    1.69292   1.69605   1.69709   1.70649   1.71804
 Alpha virt. eigenvalues --    1.72459   1.72619   1.73075   1.73096   1.73680
 Alpha virt. eigenvalues --    1.77494   1.78519   1.79157   1.79419   1.80511
 Alpha virt. eigenvalues --    1.81616   1.81887   1.82058   1.83581   1.84039
 Alpha virt. eigenvalues --    1.85487   1.87392   1.87456   1.87577   1.87728
 Alpha virt. eigenvalues --    1.88131   1.88613   1.90743   1.91387   1.92190
 Alpha virt. eigenvalues --    1.92193   1.92572   1.92670   1.93517   1.93938
 Alpha virt. eigenvalues --    1.94544   1.95483   1.97262   1.99429   2.00088
 Alpha virt. eigenvalues --    2.00602   2.01362   2.03019   2.05757   2.08293
 Alpha virt. eigenvalues --    2.09111   2.09256   2.09792   2.12192   2.14098
 Alpha virt. eigenvalues --    2.15528   2.15584   2.17200   2.19751   2.20833
 Alpha virt. eigenvalues --    2.21576   2.22525   2.23381   2.24503   2.26441
 Alpha virt. eigenvalues --    2.26972   2.27242   2.27719   2.28046   2.29391
 Alpha virt. eigenvalues --    2.33301   2.35725   2.39155   2.39384   2.40817
 Alpha virt. eigenvalues --    2.42649   2.43076   2.45776   2.45994   2.46870
 Alpha virt. eigenvalues --    2.51623   2.51954   2.53354   2.53485   2.55138
 Alpha virt. eigenvalues --    2.56159   2.58701   2.58838   2.59764   2.59776
 Alpha virt. eigenvalues --    2.60682   2.61147   2.61719   2.62222   2.63349
 Alpha virt. eigenvalues --    2.63999   2.64478   2.66054   2.66794   2.67121
 Alpha virt. eigenvalues --    2.67374   2.68356   2.68872   2.68876   2.69372
 Alpha virt. eigenvalues --    2.69557   2.69907   2.70083   2.70281   2.73482
 Alpha virt. eigenvalues --    2.74771   2.74836   2.76066   2.77101   2.77577
 Alpha virt. eigenvalues --    2.78232   2.78455   2.78850   2.80822   2.82359
 Alpha virt. eigenvalues --    2.85535   2.85993   2.86737   2.87294   2.90966
 Alpha virt. eigenvalues --    2.91783   2.92195   2.93676   2.95232   2.95887
 Alpha virt. eigenvalues --    2.99270   2.99858   3.03165   3.05604   3.06852
 Alpha virt. eigenvalues --    3.07371   3.15988   3.16029   3.16647   3.19843
 Alpha virt. eigenvalues --    3.20017   3.23601   3.29134   3.29680   3.31610
 Alpha virt. eigenvalues --    3.35095   3.35458   3.35677   3.35858   3.38023
 Alpha virt. eigenvalues --    3.39887   3.41413   3.44960   3.45362   3.47993
 Alpha virt. eigenvalues --    3.48278   3.50401   3.53073   3.57439   3.58649
 Alpha virt. eigenvalues --    3.61466   3.62620   3.63208   3.63698   3.65910
 Alpha virt. eigenvalues --    3.67534   3.67678   4.00384   4.00442   4.01859
 Alpha virt. eigenvalues --    4.02182   4.16133   4.16678   4.17360   4.21240
 Alpha virt. eigenvalues --    4.22396   4.22517   4.25488   4.38492   4.62290
 Alpha virt. eigenvalues --    4.79179   4.79740   4.80562   4.82562   4.83014
 Alpha virt. eigenvalues --   23.39176  23.54541  23.69085  23.77378  23.80419
 Alpha virt. eigenvalues --   23.81537  23.86099  23.89067  23.89154  23.92210
 Alpha virt. eigenvalues --   23.97563  23.98365  24.09049  24.09932  24.10529
 Alpha virt. eigenvalues --   24.12220  24.13779  24.14375  24.15775  24.15810
 Alpha virt. eigenvalues --   24.20452  24.20497
          Condensed to atoms (all electrons):
 Mulliken charges:
               1
     1  C    0.000000
     2  C    0.000000
     3  C    0.000000
     4  C    0.000000
     5  C    0.000000
     6  C    0.000000
     7  C    0.000000
     8  C    0.000000
     9  C    0.000000
    10  C    0.000000
    11  H    0.000000
    12  H    0.000000
    13  H    0.000000
    14  H    0.000000
    15  H    0.000000
    16  H    0.000000
    17  C    0.000000
    18  C    0.000000
    19  C    0.000000
    20  C    0.000000
    21  H    0.000000
    22  H    0.000000
    23  C    0.000000
    24  C    0.000000
    25  C    0.000000
    26  C    0.000000
    27  H    0.000000
    28  H    0.000000
    29  C    0.000000
    30  C    0.000000
    31  C    0.000000
    32  C    0.000000
    33  H    0.000000
    34  H    0.000000
    35  H    0.000000
    36  H    0.000000
    37  C   -0.059168
    38  C   -0.059168
    39  C   -0.055977
    40  C   -0.055977
    41  C   -0.092198
    42  C   -0.092198
    43  C   -0.016525
    44  C   -0.054498
    45  C   -0.016525
    46  C   -0.054498
    47  H    0.082122
    48  H    0.074853
    49  H    0.074853
    50  H    0.082122
    51  H    0.094847
    52  H    0.094847
    53  C   -0.020341
    54  C   -0.054498
    55  C   -0.020341
    56  C   -0.054498
    57  H    0.073428
    58  H    0.073428
    59  C   -0.016525
    60  C   -0.059168
    61  C   -0.016525
    62  C   -0.059168
    63  H    0.074853
    64  H    0.074853
    65  C   -0.055977
    66  C   -0.092198
    67  C   -0.055977
    68  C   -0.092198
    69  H    0.082122
    70  H    0.094847
    71  H    0.094847
    72  H    0.082122
 Sum of Mulliken charges =   0.00000
 Mulliken charges with hydrogens summed into heavy atoms:
               1
     1  C    0.000000
     2  C    0.000000
     3  C    0.000000
     4  C    0.000000
     5  C    0.000000
     6  C    0.000000
     7  C    0.000000
     8  C    0.000000
     9  C    0.000000
    10  C    0.000000
    17  C    0.000000
    18  C    0.000000
    19  C    0.000000
    20  C    0.000000
    23  C    0.000000
    24  C    0.000000
    25  C    0.000000
    26  C    0.000000
    29  C    0.000000
    30  C    0.000000
    31  C    0.000000
    32  C    0.000000
    37  C   -0.059168
    38  C   -0.059168
    39  C    0.026144
    40  C    0.026144
    41  C    0.002649
    42  C    0.002649
    43  C    0.058328
    44  C   -0.054498
    45  C    0.058328
    46  C   -0.054498
    53  C    0.053087
    54  C   -0.054498
    55  C    0.053087
    56  C   -0.054498
    59  C    0.058328
    60  C   -0.059168
    61  C    0.058328
    62  C   -0.059168
    65  C    0.026144
    66  C    0.002649
    67  C    0.026144
    68  C    0.002649
         Mulliken charges condensed to fragments:
      1      0.000000
      2      0.000000
 Electronic spatial extent (au):  <R**2>=          15685.0348
 Charge=              0.0000 electrons
 Dipole moment (field-independent basis, Debye):
    X=              0.0000    Y=              0.0000    Z=              0.0000  Tot=              0.0000
 Quadrupole moment (field-independent basis, Debye-Ang):
   XX=           -136.3921   YY=           -110.7480   ZZ=           -109.0115
   XY=              0.0000   XZ=              0.0000   YZ=              0.0000
 Traceless Quadrupole moment (field-independent basis, Debye-Ang):
   XX=            -17.6749   YY=              7.9692   ZZ=              9.7057
   XY=              0.0000   XZ=              0.0000   YZ=              0.0000
 Octapole moment (field-independent basis, Debye-Ang**2):
  XXX=           1012.6594  YYY=            822.2622  ZZZ=              0.0000  XYY=            274.0874
  XXY=            337.5531  XXZ=              0.0000  XZZ=            269.7896  YZZ=            269.7896
  YYZ=              0.0000  XYZ=              0.0000
 Hexadecapole moment (field-independent basis, Debye-Ang**3):
 XXXX=          -5166.8121 YYYY=          -5186.7070 ZZZZ=         -10461.4324 XXXY=          -2506.2041
 XXXZ=              0.0000 YYYX=          -2034.9951 YYYZ=              0.0000 ZZZX=              0.0000
 ZZZY=              0.0000 XXYY=          -1770.1484 XXZZ=          -2875.6273 YYZZ=          -2636.9097
 XXYZ=              0.0000 YYXZ=              0.0000 ZZXY=           -667.6953
 N-N= 1.494327112715D+03 E-N=-4.953709177005D+03  KE= 8.433374905337D+02
 Symmetry A'   KE= 4.567052305547D+02
 Symmetry A"   KE= 3.866322599790D+02
 No NMR shielding tensors so no spin-rotation constants.
 Leave Link  601 at Wed Sep 27 16:57:10 2023, MaxMem=  3221225472 cpu:              19.0 elap:               0.5
 (Enter /home/center/opt/aarch64/apps/gaussian16/c01/g16/l122.exe)
 CPIOFr:  IOpCl= 0 IRwI=-1 IRwCP=  731 ICalc=  4 LCPTot=     1419224 Len1MO=     3708034 IndFrg=    19959394
 Restoring MOs from calculation   1 to rwf.
 CPIOFr:  IOpCl= 0 IRwI=-2 IRwCP=  731 ICalc=  0 LCPTot=     1419224 Len1MO=     3708034 IndFrg=     5127258
 Counterpoise corrected energy =   -1694.043225467190
                   BSSE energy =       0.000263417986
              sum of fragments =   -1694.039683044253
           complexation energy =      -2.39 kcal/mole (raw)
           complexation energy =      -2.22 kcal/mole (corrected)
 Leave Link  122 at Wed Sep 27 16:57:13 2023, MaxMem=  3221225472 cpu:               8.3 elap:               0.3
 (Enter /home/center/opt/aarch64/apps/gaussian16/c01/g16/l9999.exe)

 Test job not archived.
 1\1\GINC-FX0529\SP\RB3LYP\6-311G(d,p)\C44H28\Z40145W\27-Sep-2023\0\\#P
  TEST b3lyp/6-311G** EmpiricalDispersion=GD3 counterpoise=2\\pentacene
 _A1=0_A2=0_A3=45_p2\\0,1\C,0,-0.5039478476,0.5239478476,-3.6612755801\
 C,0,0.5239480325,-0.5039480325,-3.6612755629\C,0,-0.9861248463,1.00612
 48463,-4.9235927708\C,0,1.0061250889,-0.9861250889,-4.9235926697\C,0,-
 0.4963213507,0.5163213507,-6.096356521\C,0,0.5163216812,-0.4963216812,
 -6.0963564796\C,0,-0.9844684311,1.0044684311,-2.4533174875\C,0,-0.5044
 88426,0.524488426,-1.2140288145\C,0,1.0044685359,-0.9844685359,-2.4533
 173917\C,0,0.5244885437,-0.5044885437,-1.2140288362\H,0,-1.7533559667,
 1.7733559667,-4.9232600459\H,0,-1.7521866813,1.7721866813,-2.453928581
 5\H,0,1.7721859268,-1.7521859268,-2.4539284818\H,0,1.7733558421,-1.753
 3558421,-4.9232597785\H,0,0.8905568758,-0.8705568758,-7.0425276922\H,0
 ,-0.8705565046,0.8905565046,-7.042527775\C,0,-0.9848184961,1.004818496
 1,0.0099998782\C,0,-0.5044883957,0.5244883957,1.2340295553\C,0,1.00481
 85643,-0.9848185643,0.0099998696\C,0,0.5244885146,-0.5044885146,1.2340
 295261\H,0,-1.7524699697,1.7724699697,0.0099999205\H,0,1.772468921,-1.
 752468921,0.0099999641\C,0,-0.9844683048,1.0044683048,2.4733171385\C,0
 ,-0.5039477114,0.5239477114,3.681276331\C,0,1.0044684211,-0.9844684211
 ,2.4733170835\C,0,0.5239479079,-0.5039479079,3.6812763217\H,0,-1.75218
 65527,1.7721865527,2.4739285326\H,0,1.7721858092,-1.7521858092,2.47392
 83796\C,0,-0.9861245177,1.0061245177,4.9435920588\C,0,-0.4963209372,0.
 5163209372,6.116356633\C,0,1.0061247659,-0.9861247659,4.9435919377\C,0
 ,0.5163212637,-0.4963212637,6.1163566075\H,0,-1.7533556504,1.773355650
 4,4.9432601504\H,0,-0.8705567426,0.8905567426,7.0625274368\H,0,0.89055
 70967,-0.8705570967,7.0625272142\H,0,1.7733555414,-1.7533555414,4.9432
 599297\C,0,6.4960521524,0.5239478476,-3.6612755801\C,0,7.5239480325,-0
 .5039480325,-3.6612755629\C,0,6.0138751537,1.0061248463,-4.9235927708\
 C,0,8.0061250889,-0.9861250889,-4.9235926697\C,0,6.5036786493,0.516321
 3507,-6.096356521\C,0,7.5163216812,-0.4963216812,-6.0963564796\C,0,6.0
 155315689,1.0044684311,-2.4533174875\C,0,6.495511574,0.524488426,-1.21
 40288145\C,0,8.0044685359,-0.9844685359,-2.4533173917\C,0,7.5244885437
 ,-0.5044885437,-1.2140288362\H,0,5.2466440333,1.7733559667,-4.92326004
 59\H,0,5.2478133187,1.7721866813,-2.4539285815\H,0,8.7721859268,-1.752
 1859268,-2.4539284818\H,0,8.7733558421,-1.7533558421,-4.9232597785\H,0
 ,7.8905568758,-0.8705568758,-7.0425276922\H,0,6.1294434954,0.890556504
 6,-7.042527775\C,0,6.0151815039,1.0048184961,0.0099998782\C,0,6.495511
 6043,0.5244883957,1.2340295553\C,0,8.0048185643,-0.9848185643,0.009999
 8696\C,0,7.5244885146,-0.5044885146,1.2340295261\H,0,5.2475300303,1.77
 24699697,0.0099999205\H,0,8.772468921,-1.752468921,0.0099999641\C,0,6.
 0155316952,1.0044683048,2.4733171385\C,0,6.4960522886,0.5239477114,3.6
 81276331\C,0,8.0044684211,-0.9844684211,2.4733170835\C,0,7.5239479079,
 -0.5039479079,3.6812763217\H,0,5.2478134473,1.7721865527,2.4739285326\
 H,0,8.7721858092,-1.7521858092,2.4739283796\C,0,6.0138754823,1.0061245
 177,4.9435920588\C,0,6.5036790628,0.5163209372,6.116356633\C,0,8.00612
 47659,-0.9861247659,4.9435919377\C,0,7.5163212637,-0.4963212637,6.1163
 566075\H,0,5.2466443496,1.7733556504,4.9432601504\H,0,6.1294432574,0.8
 905567426,7.0625274368\H,0,7.8905570967,-0.8705570967,7.0625272142\H,0
 ,8.7733555414,-1.7533555414,4.9432599297\\Version=Fujitsu-Arm-G16RevC.
 01\State=1-A'\HF=-847.0198415\RMSD=3.180e-09\Dipole=-0.0000007,0.00000
 08,0.\Quadrupole=-8.0935271,-6.2206603,14.3141874,-18.1106223,0.,0.\PG
 =CS [SG(C4H4),X(C40H24)]\\@


 ADAM SMITH SAID, "THE REAL PRICE OF ANYTHING IS THE TOIL AND TROUBLE
 OF ACQUIRING IT."  BUT IN ALL UNDERTAKINGS WITH NATURE WE SHOULD FIRST
 READ CAREFULLY THE SMALL PRINT IN THE CONTRACT. THIS MIGHT DISCLOSE
 THAT THE REAL PRICE IS TO BE PAID BY THOSE WHO INHERIT THE DEPLETION
 AND DESPOILATION THAT FOLLOWS.
                               -- E. R. HARRISON IN "COSMOLOGY" (1980)
 Job cpu time:       0 days  3 hours  0 minutes 53.8 seconds.
 Elapsed time:       0 days  0 hours  4 minutes 48.0 seconds.
 File lengths (MBytes):  RWF=    718 Int=      0 D2E=      0 Chk=    208 Scr=      1
 Normal termination of Gaussian 16 at Wed Sep 27 16:57:18 2023.
