 Entering Gaussian System, Link 0=g16
 Initial command:
 /home/center/opt/aarch64/apps/gaussian16/c01/g16/l1.exe "/data/tmp/Gtmp/1006924/Gau-49.inp" -scrdir="/data/tmp/Gtmp/1006924/"
 Entering Link 1 = /home/center/opt/aarch64/apps/gaussian16/c01/g16/l1.exe PID=        50.
  
 Copyright (c) 1988-2019, Gaussian, Inc.  All Rights Reserved.
  
 This is part of the Gaussian(R) 16 program.  It is based on
 the Gaussian(R) 09 system (copyright 2009, Gaussian, Inc.),
 the Gaussian(R) 03 system (copyright 2003, Gaussian, Inc.),
 the Gaussian(R) 98 system (copyright 1998, Gaussian, Inc.),
 the Gaussian(R) 94 system (copyright 1995, Gaussian, Inc.),
 the Gaussian 92(TM) system (copyright 1992, Gaussian, Inc.),
 the Gaussian 90(TM) system (copyright 1990, Gaussian, Inc.),
 the Gaussian 88(TM) system (copyright 1988, Gaussian, Inc.),
 the Gaussian 86(TM) system (copyright 1986, Carnegie Mellon
 University), and the Gaussian 82(TM) system (copyright 1983,
 Carnegie Mellon University). Gaussian is a federally registered
 trademark of Gaussian, Inc.
  
 This software contains proprietary and confidential information,
 including trade secrets, belonging to Gaussian, Inc.
  
 This software is provided under written license and may be
 used, copied, transmitted, or stored only in accord with that
 written license.
  
 The following legend is applicable only to US Government
 contracts under FAR:
  
                    RESTRICTED RIGHTS LEGEND
  
 Use, reproduction and disclosure by the US Government is
 subject to restrictions as set forth in subparagraphs (a)
 and (c) of the Commercial Computer Software - Restricted
 Rights clause in FAR 52.227-19.
  
 Gaussian, Inc.
 340 Quinnipiac St., Bldg. 40, Wallingford CT 06492
  
  
 ---------------------------------------------------------------
 Warning -- This program may not be used in any manner that
 competes with the business of Gaussian, Inc. or will provide
 assistance to any competitor of Gaussian, Inc.  The licensee
 of this program is prohibited from giving any competitor of
 Gaussian, Inc. access to this program.  By using this program,
 the user acknowledges that Gaussian, Inc. is engaged in the
 business of creating and licensing software in the field of
 computational chemistry and represents and warrants to the
 licensee that it is not a competitor of Gaussian, Inc. and that
 it will not use this program in any manner prohibited above.
 ---------------------------------------------------------------
  

 Cite this work as:
 Gaussian 16, Revision C.01,
 M. J. Frisch, G. W. Trucks, H. B. Schlegel, G. E. Scuseria, 
 M. A. Robb, J. R. Cheeseman, G. Scalmani, V. Barone, 
 G. A. Petersson, H. Nakatsuji, X. Li, M. Caricato, A. V. Marenich, 
 J. Bloino, B. G. Janesko, R. Gomperts, B. Mennucci, H. P. Hratchian, 
 J. V. Ortiz, A. F. Izmaylov, J. L. Sonnenberg, D. Williams-Young, 
 F. Ding, F. Lipparini, F. Egidi, J. Goings, B. Peng, A. Petrone, 
 T. Henderson, D. Ranasinghe, V. G. Zakrzewski, J. Gao, N. Rega, 
 G. Zheng, W. Liang, M. Hada, M. Ehara, K. Toyota, R. Fukuda, 
 J. Hasegawa, M. Ishida, T. Nakajima, Y. Honda, O. Kitao, H. Nakai, 
 T. Vreven, K. Throssell, J. A. Montgomery, Jr., J. E. Peralta, 
 F. Ogliaro, M. J. Bearpark, J. J. Heyd, E. N. Brothers, K. N. Kudin, 
 V. N. Staroverov, T. A. Keith, R. Kobayashi, J. Normand, 
 K. Raghavachari, A. P. Rendell, J. C. Burant, S. S. Iyengar, 
 J. Tomasi, M. Cossi, J. M. Millam, M. Klene, C. Adamo, R. Cammi, 
 J. W. Ochterski, R. L. Martin, K. Morokuma, O. Farkas, 
 J. B. Foresman, and D. J. Fox, Gaussian, Inc., Wallingford CT, 2019.
 
 ************************************************
 Gaussian 16:  Fujitsu-Arm-G16RevC.01  3-Jul-2019
                   27-Sep-2023 
 ************************************************
 %mem=24GB
 %nproc=42
 Will use up to   42 processors via shared memory.
 -------------------------------------------------------------
 #P TEST b3lyp/6-311G** EmpiricalDispersion=GD3 counterpoise=2
 -------------------------------------------------------------
 1/38=1,62=2,172=1/1;
 2/12=2,17=6,18=5,40=1/2;
 1/38=1,53=2,62=2,63=1/22;
 3/5=4,6=6,7=101,11=2,25=1,30=1,74=-5,124=31/1,2,3;
 4//1;
 5/5=2,38=5/2;
 6/7=2,8=2,9=2,10=2,28=1/1;
 1/53=2,62=2,63=1/22;
 3/5=7,6=11,7=101,11=2,25=1,30=1,74=-5,82=7,124=31/1,2,3;
 4//1;
 5/5=2,38=5/2;
 6/7=2,8=2,9=2,10=2,28=1/1;
 1/53=2,62=2,63=1/22(-4);
 99/5=1,9=1/99;
 Leave Link    1 at Wed Sep 27 16:37:37 2023, MaxMem=  3221225472 cpu:               1.3 elap:               0.2
 (Enter /home/center/opt/aarch64/apps/gaussian16/c01/g16/l101.exe)
 ----------------------------
 pentacene_A1=0_A2=0_A3=45_t1
 ----------------------------
 Symbolic Z-matrix:
 Charge =  0 Multiplicity = 1 in supermolecule
 Charge =  0 Multiplicity = 1 in fragment      1.
 Charge =  0 Multiplicity = 1 in fragment      2.
 C(Fragment=1)        -0.50395   0.52395  -3.66128 
 C(Fragment=1)         0.52395  -0.50395  -3.66128 
 C(Fragment=1)        -0.98612   1.00612  -4.92359 
 C(Fragment=1)         1.00613  -0.98613  -4.92359 
 C(Fragment=1)        -0.49632   0.51632  -6.09636 
 C(Fragment=1)         0.51632  -0.49632  -6.09636 
 C(Fragment=1)        -0.98447   1.00447  -2.45332 
 C(Fragment=1)        -0.50449   0.52449  -1.21403 
 C(Fragment=1)         1.00447  -0.98447  -2.45332 
 C(Fragment=1)         0.52449  -0.50449  -1.21403 
 H(Fragment=1)        -1.75336   1.77336  -4.92326 
 H(Fragment=1)        -1.75219   1.77219  -2.45393 
 H(Fragment=1)         1.77219  -1.75219  -2.45393 
 H(Fragment=1)         1.77336  -1.75336  -4.92326 
 H(Fragment=1)         0.89056  -0.87056  -7.04253 
 H(Fragment=1)        -0.87056   0.89056  -7.04253 
 C(Fragment=1)        -0.98482   1.00482   0.01 
 C(Fragment=1)        -0.50449   0.52449   1.23403 
 C(Fragment=1)         1.00482  -0.98482   0.01 
 C(Fragment=1)         0.52449  -0.50449   1.23403 
 H(Fragment=1)        -1.75247   1.77247   0.01 
 H(Fragment=1)         1.77247  -1.75247   0.01 
 C(Fragment=1)        -0.98447   1.00447   2.47332 
 C(Fragment=1)        -0.50395   0.52395   3.68128 
 C(Fragment=1)         1.00447  -0.98447   2.47332 
 C(Fragment=1)         0.52395  -0.50395   3.68128 
 H(Fragment=1)        -1.75219   1.77219   2.47393 
 H(Fragment=1)         1.77219  -1.75219   2.47393 
 C(Fragment=1)        -0.98612   1.00612   4.94359 
 C(Fragment=1)        -0.49632   0.51632   6.11636 
 C(Fragment=1)         1.00612  -0.98612   4.94359 
 C(Fragment=1)         0.51632  -0.49632   6.11636 
 H(Fragment=1)        -1.75336   1.77336   4.94326 
 H(Fragment=1)        -0.87056   0.89056   7.06253 
 H(Fragment=1)         0.89056  -0.87056   7.06253 
 H(Fragment=1)         1.77336  -1.75336   4.94326 
 C(Fragment=2)         2.77395   6.02395  -3.66128 
 C(Fragment=2)         1.74605   4.99605  -3.66128 
 C(Fragment=2)         3.25612   6.50612  -4.92359 
 C(Fragment=2)         1.26387   4.51387  -4.92359 
 C(Fragment=2)         2.76632   6.01632  -6.09636 
 C(Fragment=2)         1.75368   5.00368  -6.09636 
 C(Fragment=2)         3.25447   6.50447  -2.45332 
 C(Fragment=2)         2.77449   6.02449  -1.21403 
 C(Fragment=2)         1.26553   4.51553  -2.45332 
 C(Fragment=2)         1.74551   4.99551  -1.21403 
 H(Fragment=2)         4.02336   7.27336  -4.92326 
 H(Fragment=2)         4.02219   7.27219  -2.45393 
 H(Fragment=2)         0.49781   3.74781  -2.45393 
 H(Fragment=2)         0.49664   3.74664  -4.92326 
 H(Fragment=2)         1.37944   4.62944  -7.04253 
 H(Fragment=2)         3.14056   6.39056  -7.04253 
 C(Fragment=2)         3.25482   6.50482   0.01 
 C(Fragment=2)         2.77449   6.02449   1.23403 
 C(Fragment=2)         1.26518   4.51518   0.01 
 C(Fragment=2)         1.74551   4.99551   1.23403 
 H(Fragment=2)         4.02247   7.27247   0.01 
 H(Fragment=2)         0.49753   3.74753   0.01 
 C(Fragment=2)         3.25447   6.50447   2.47332 
 C(Fragment=2)         2.77395   6.02395   3.68128 
 C(Fragment=2)         1.26553   4.51553   2.47332 
 C(Fragment=2)         1.74605   4.99605   3.68128 
 H(Fragment=2)         4.02219   7.27219   2.47393 
 H(Fragment=2)         0.49781   3.74781   2.47393 
 C(Fragment=2)         3.25612   6.50612   4.94359 
 C(Fragment=2)         2.76632   6.01632   6.11636 
 C(Fragment=2)         1.26388   4.51388   4.94359 
 C(Fragment=2)         1.75368   5.00368   6.11636 
 H(Fragment=2)         4.02336   7.27336   4.94326 
 H(Fragment=2)         3.14056   6.39056   7.06253 
 H(Fragment=2)         1.37944   4.62944   7.06253 
 H(Fragment=2)         0.49664   3.74664   4.94326 
 
 ITRead=  0  0  0  0  0  0  0  0  0  0  0  0  0  0  0  0  0  0  0  0
 ITRead=  0  0  0  0  0  0  0  0  0  0  0  0  0  0  0  0  0  0  0  0
 ITRead=  0  0  0  0  0  0  0  0  0  0  0  0  0  0  0  0  0  0  0  0
 ITRead=  0  0  0  0  0  0  0  0  0  0  0  0
 MicOpt= -1 -1 -1 -1 -1 -1 -1 -1 -1 -1 -1 -1 -1 -1 -1 -1 -1 -1 -1 -1
 MicOpt= -1 -1 -1 -1 -1 -1 -1 -1 -1 -1 -1 -1 -1 -1 -1 -1 -1 -1 -1 -1
 MicOpt= -1 -1 -1 -1 -1 -1 -1 -1 -1 -1 -1 -1 -1 -1 -1 -1 -1 -1 -1 -1
 MicOpt= -1 -1 -1 -1 -1 -1 -1 -1 -1 -1 -1 -1
 NAtoms=     72 NQM=       72 NQMF=       0 NMMI=      0 NMMIF=      0
                NMic=       0 NMicF=      0.
                    Isotopes and Nuclear Properties:
 (Nuclear quadrupole moments (NQMom) in fm**2, nuclear magnetic moments (NMagM)
  in nuclear magnetons)

  Atom         1           2           3           4           5           6           7           8           9          10
 IAtWgt=          12          12          12          12          12          12          12          12          12          12
 AtmWgt=  12.0000000  12.0000000  12.0000000  12.0000000  12.0000000  12.0000000  12.0000000  12.0000000  12.0000000  12.0000000
 NucSpn=           0           0           0           0           0           0           0           0           0           0
 AtZEff=   0.0000000   0.0000000   0.0000000   0.0000000   0.0000000   0.0000000   0.0000000   0.0000000   0.0000000   0.0000000
 NQMom=    0.0000000   0.0000000   0.0000000   0.0000000   0.0000000   0.0000000   0.0000000   0.0000000   0.0000000   0.0000000
 NMagM=    0.0000000   0.0000000   0.0000000   0.0000000   0.0000000   0.0000000   0.0000000   0.0000000   0.0000000   0.0000000
 AtZNuc=   6.0000000   6.0000000   6.0000000   6.0000000   6.0000000   6.0000000   6.0000000   6.0000000   6.0000000   6.0000000

  Atom        11          12          13          14          15          16          17          18          19          20
 IAtWgt=           1           1           1           1           1           1          12          12          12          12
 AtmWgt=   1.0078250   1.0078250   1.0078250   1.0078250   1.0078250   1.0078250  12.0000000  12.0000000  12.0000000  12.0000000
 NucSpn=           1           1           1           1           1           1           0           0           0           0
 AtZEff=   0.0000000   0.0000000   0.0000000   0.0000000   0.0000000   0.0000000   0.0000000   0.0000000   0.0000000   0.0000000
 NQMom=    0.0000000   0.0000000   0.0000000   0.0000000   0.0000000   0.0000000   0.0000000   0.0000000   0.0000000   0.0000000
 NMagM=    2.7928460   2.7928460   2.7928460   2.7928460   2.7928460   2.7928460   0.0000000   0.0000000   0.0000000   0.0000000
 AtZNuc=   1.0000000   1.0000000   1.0000000   1.0000000   1.0000000   1.0000000   6.0000000   6.0000000   6.0000000   6.0000000

  Atom        21          22          23          24          25          26          27          28          29          30
 IAtWgt=           1           1          12          12          12          12           1           1          12          12
 AtmWgt=   1.0078250   1.0078250  12.0000000  12.0000000  12.0000000  12.0000000   1.0078250   1.0078250  12.0000000  12.0000000
 NucSpn=           1           1           0           0           0           0           1           1           0           0
 AtZEff=   0.0000000   0.0000000   0.0000000   0.0000000   0.0000000   0.0000000   0.0000000   0.0000000   0.0000000   0.0000000
 NQMom=    0.0000000   0.0000000   0.0000000   0.0000000   0.0000000   0.0000000   0.0000000   0.0000000   0.0000000   0.0000000
 NMagM=    2.7928460   2.7928460   0.0000000   0.0000000   0.0000000   0.0000000   2.7928460   2.7928460   0.0000000   0.0000000
 AtZNuc=   1.0000000   1.0000000   6.0000000   6.0000000   6.0000000   6.0000000   1.0000000   1.0000000   6.0000000   6.0000000

  Atom        31          32          33          34          35          36          37          38          39          40
 IAtWgt=          12          12           1           1           1           1          12          12          12          12
 AtmWgt=  12.0000000  12.0000000   1.0078250   1.0078250   1.0078250   1.0078250  12.0000000  12.0000000  12.0000000  12.0000000
 NucSpn=           0           0           1           1           1           1           0           0           0           0
 AtZEff=   0.0000000   0.0000000   0.0000000   0.0000000   0.0000000   0.0000000   0.0000000   0.0000000   0.0000000   0.0000000
 NQMom=    0.0000000   0.0000000   0.0000000   0.0000000   0.0000000   0.0000000   0.0000000   0.0000000   0.0000000   0.0000000
 NMagM=    0.0000000   0.0000000   2.7928460   2.7928460   2.7928460   2.7928460   0.0000000   0.0000000   0.0000000   0.0000000
 AtZNuc=   6.0000000   6.0000000   1.0000000   1.0000000   1.0000000   1.0000000   6.0000000   6.0000000   6.0000000   6.0000000

  Atom        41          42          43          44          45          46          47          48          49          50
 IAtWgt=          12          12          12          12          12          12           1           1           1           1
 AtmWgt=  12.0000000  12.0000000  12.0000000  12.0000000  12.0000000  12.0000000   1.0078250   1.0078250   1.0078250   1.0078250
 NucSpn=           0           0           0           0           0           0           1           1           1           1
 AtZEff=   0.0000000   0.0000000   0.0000000   0.0000000   0.0000000   0.0000000   0.0000000   0.0000000   0.0000000   0.0000000
 NQMom=    0.0000000   0.0000000   0.0000000   0.0000000   0.0000000   0.0000000   0.0000000   0.0000000   0.0000000   0.0000000
 NMagM=    0.0000000   0.0000000   0.0000000   0.0000000   0.0000000   0.0000000   2.7928460   2.7928460   2.7928460   2.7928460
 AtZNuc=   6.0000000   6.0000000   6.0000000   6.0000000   6.0000000   6.0000000   1.0000000   1.0000000   1.0000000   1.0000000

  Atom        51          52          53          54          55          56          57          58          59          60
 IAtWgt=           1           1          12          12          12          12           1           1          12          12
 AtmWgt=   1.0078250   1.0078250  12.0000000  12.0000000  12.0000000  12.0000000   1.0078250   1.0078250  12.0000000  12.0000000
 NucSpn=           1           1           0           0           0           0           1           1           0           0
 AtZEff=   0.0000000   0.0000000   0.0000000   0.0000000   0.0000000   0.0000000   0.0000000   0.0000000   0.0000000   0.0000000
 NQMom=    0.0000000   0.0000000   0.0000000   0.0000000   0.0000000   0.0000000   0.0000000   0.0000000   0.0000000   0.0000000
 NMagM=    2.7928460   2.7928460   0.0000000   0.0000000   0.0000000   0.0000000   2.7928460   2.7928460   0.0000000   0.0000000
 AtZNuc=   1.0000000   1.0000000   6.0000000   6.0000000   6.0000000   6.0000000   1.0000000   1.0000000   6.0000000   6.0000000

  Atom        61          62          63          64          65          66          67          68          69          70
 IAtWgt=          12          12           1           1          12          12          12          12           1           1
 AtmWgt=  12.0000000  12.0000000   1.0078250   1.0078250  12.0000000  12.0000000  12.0000000  12.0000000   1.0078250   1.0078250
 NucSpn=           0           0           1           1           0           0           0           0           1           1
 AtZEff=   0.0000000   0.0000000   0.0000000   0.0000000   0.0000000   0.0000000   0.0000000   0.0000000   0.0000000   0.0000000
 NQMom=    0.0000000   0.0000000   0.0000000   0.0000000   0.0000000   0.0000000   0.0000000   0.0000000   0.0000000   0.0000000
 NMagM=    0.0000000   0.0000000   2.7928460   2.7928460   0.0000000   0.0000000   0.0000000   0.0000000   2.7928460   2.7928460
 AtZNuc=   6.0000000   6.0000000   1.0000000   1.0000000   6.0000000   6.0000000   6.0000000   6.0000000   1.0000000   1.0000000

  Atom        71          72
 IAtWgt=           1           1
 AtmWgt=   1.0078250   1.0078250
 NucSpn=           1           1
 AtZEff=   0.0000000   0.0000000
 NQMom=    0.0000000   0.0000000
 NMagM=    2.7928460   2.7928460
 AtZNuc=   1.0000000   1.0000000
 Leave Link  101 at Wed Sep 27 16:37:39 2023, MaxMem=  3221225472 cpu:               1.1 elap:               0.1
 (Enter /home/center/opt/aarch64/apps/gaussian16/c01/g16/l202.exe)
 Stoichiometry    C44H28
 Framework group  CS[SG(C4H4),X(C40H24)]
 Deg. of freedom   109
 Full point group                 CS      NOp   2
 Largest Abelian subgroup         CS      NOp   2
 Largest concise Abelian subgroup CS      NOp   2
                         Standard orientation:                         
 ---------------------------------------------------------------------
 Center     Atomic      Atomic             Coordinates (Angstroms)
 Number     Number       Type             X           Y           Z
 ---------------------------------------------------------------------
      1          6           0       -0.422216   -2.740039    3.671276
      2          6           0       -1.875881   -2.740039    3.671276
      3          6           0        0.259685   -2.740039    4.933593
      4          6           0       -2.557782   -2.740039    4.933593
      5          6           0       -0.433002   -2.740039    6.106357
      6          6           0       -1.865095   -2.740039    6.106357
      7          6           0        0.257342   -2.740039    2.463318
      8          6           0       -0.421452   -2.740039    1.224029
      9          6           0       -2.555439   -2.740039    2.463317
     10          6           0       -1.876645   -2.740039    1.224029
     11          1           0        1.344713   -2.740039    4.933260
     12          1           0        1.343060   -2.740039    2.463929
     13          1           0       -3.641156   -2.740039    2.463929
     14          1           0       -3.642810   -2.740039    4.933260
     15          1           0       -2.394344   -2.740039    7.052528
     16          1           0        0.096246   -2.740039    7.052528
     17          6           0        0.257837   -2.740039    0.000000
     18          6           0       -0.421452   -2.740039   -1.224029
     19          6           0       -2.555934   -2.740039    0.000000
     20          6           0       -1.876645   -2.740039   -1.224029
     21          1           0        1.343460   -2.740039    0.000000
     22          1           0       -3.641556   -2.740039    0.000000
     23          6           0        0.257342   -2.740039   -2.463318
     24          6           0       -0.422216   -2.740039   -3.671276
     25          6           0       -2.555439   -2.740039   -2.463317
     26          6           0       -1.875881   -2.740039   -3.671276
     27          1           0        1.343060   -2.740039   -2.463929
     28          1           0       -3.641156   -2.740039   -2.463929
     29          6           0        0.259685   -2.740039   -4.933593
     30          6           0       -0.433002   -2.740039   -6.106357
     31          6           0       -2.557782   -2.740039   -4.933593
     32          6           0       -1.865095   -2.740039   -6.106357
     33          1           0        1.344713   -2.740039   -4.933260
     34          1           0        0.096246   -2.740039   -7.052528
     35          1           0       -2.394344   -2.740039   -7.052528
     36          1           0       -3.642810   -2.740039   -4.933260
     37          6           0        1.149049    3.466871    3.671276
     38          6           0        1.149049    2.013207    3.671276
     39          6           0        1.149049    4.148772    4.933593
     40          6           0        1.149049    1.331305    4.933593
     41          6           0        1.149049    3.456085    6.106357
     42          6           0        1.149049    2.023992    6.106357
     43          6           0        1.149049    4.146430    2.463318
     44          6           0        1.149049    3.467635    1.224029
     45          6           0        1.149049    1.333648    2.463317
     46          6           0        1.149049    2.012442    1.224029
     47          1           0        1.149049    5.233801    4.933260
     48          1           0        1.149049    5.232147    2.463929
     49          1           0        1.149049    0.247932    2.463929
     50          1           0        1.149049    0.246277    4.933260
     51          1           0        1.149049    1.494743    7.052528
     52          1           0        1.149049    3.985334    7.052528
     53          6           0        1.149049    4.146925    0.000000
     54          6           0        1.149049    3.467635   -1.224029
     55          6           0        1.149049    1.333153    0.000000
     56          6           0        1.149049    2.012442   -1.224029
     57          1           0        1.149049    5.232548    0.000000
     58          1           0        1.149049    0.247531    0.000000
     59          6           0        1.149049    4.146430   -2.463318
     60          6           0        1.149049    3.466871   -3.671276
     61          6           0        1.149049    1.333648   -2.463317
     62          6           0        1.149049    2.013207   -3.671276
     63          1           0        1.149049    5.232147   -2.463929
     64          1           0        1.149049    0.247932   -2.463929
     65          6           0        1.149049    4.148772   -4.933593
     66          6           0        1.149049    3.456085   -6.106357
     67          6           0        1.149049    1.331305   -4.933593
     68          6           0        1.149049    2.023992   -6.106357
     69          1           0        1.149049    5.233801   -4.933260
     70          1           0        1.149049    3.985334   -7.052528
     71          1           0        1.149049    1.494743   -7.052528
     72          1           0        1.149049    0.246277   -4.933260
 ---------------------------------------------------------------------
 Rotational constants (GHZ):           0.0890646           0.0563744           0.0364235
 Leave Link  202 at Wed Sep 27 16:37:42 2023, MaxMem=  3221225472 cpu:               0.6 elap:               0.1
 (Enter /home/center/opt/aarch64/apps/gaussian16/c01/g16/l122.exe)
 Counterpoise: doing full-system calculation.
 Leave Link  122 at Wed Sep 27 16:37:44 2023, MaxMem=  3221225472 cpu:               0.2 elap:               0.0
 (Enter /home/center/opt/aarch64/apps/gaussian16/c01/g16/l301.exe)
 Standard basis: 6-311G(d,p) (5D, 7F)
 Ernie: Thresh=  0.10000D-02 Tol=  0.10000D-05 Strict=F.
 There are   528 symmetry adapted cartesian basis functions of A'  symmetry.
 There are   476 symmetry adapted cartesian basis functions of A"  symmetry.
 There are   504 symmetry adapted basis functions of A'  symmetry.
 There are   456 symmetry adapted basis functions of A"  symmetry.
   960 basis functions,  1632 primitive gaussians,  1004 cartesian basis functions
   146 alpha electrons      146 beta electrons
       nuclear repulsion energy      4505.2832473617 Hartrees.
 IExCor=  402 DFT=T Ex+Corr=B3LYP ExCW=0 ScaHFX=  0.200000
 ScaDFX=  0.800000  0.720000  1.000000  0.810000 ScalE2=  1.000000  1.000000
 IRadAn=      5 IRanWt=     -1 IRanGd=            0 ICorTp=0 IEmpDi=131
 NAtoms=   72 NActive=   72 NUniq=   40 SFac= 3.24D+00 NAtFMM=   60 NAOKFM=T Big=F
 Integral buffers will be    131072 words long.
 Raffenetti 2 integral format.
 Two-electron integral symmetry is turned on.
 R6Disp:  Grimme-D3 Dispersion energy=       -0.0722440375 Hartrees.
 Nuclear repulsion after empirical dispersion term =     4505.2110033242 Hartrees.
 Leave Link  301 at Wed Sep 27 16:37:46 2023, MaxMem=  3221225472 cpu:               2.1 elap:               0.1
 (Enter /home/center/opt/aarch64/apps/gaussian16/c01/g16/l302.exe)
 NPDir=0 NMtPBC=     1 NCelOv=     1 NCel=       1 NClECP=     1 NCelD=      1
         NCelK=      1 NCelE2=     1 NClLst=     1 CellRange=     0.0.
 One-electron integrals computed using PRISM.
 One-electron integral symmetry used in STVInt
 NBasis=   960 RedAO= T EigKep=  3.94D-05  NBF=   504   456
 NBsUse=   960 1.00D-06 EigRej= -1.00D+00 NBFU=   504   456
 Precomputing XC quadrature grid using
 IXCGrd= 4 IRadAn=           5 IRanWt=          -1 IRanGd=           0 AccXCQ= 0.00D+00.
 Generated NRdTot=       0 NPtTot=           0 NUsed=           0 NTot=          32
 NSgBfM=   987   987   987   987   987 MxSgAt=    72 MxSgA2=    72.
 Leave Link  302 at Wed Sep 27 16:37:51 2023, MaxMem=  3221225472 cpu:              63.6 elap:               1.9
 (Enter /home/center/opt/aarch64/apps/gaussian16/c01/g16/l303.exe)
 DipDrv:  MaxL=1.
 Leave Link  303 at Wed Sep 27 16:37:53 2023, MaxMem=  3221225472 cpu:              13.7 elap:               0.4
 (Enter /home/center/opt/aarch64/apps/gaussian16/c01/g16/l401.exe)
 ExpMin= 1.03D-01 ExpMax= 4.56D+03 ExpMxC= 6.82D+02 IAcc=3 IRadAn=         5 AccDes= 0.00D+00
 Harris functional with IExCor=  402 and IRadAn=       5 diagonalized for initial guess.
 HarFok:  IExCor=  402 AccDes= 0.00D+00 IRadAn=         5 IDoV= 1 UseB2=F ITyADJ=14
 ICtDFT=  3500011 ScaDFX=  1.000000  1.000000  1.000000  1.000000
 FoFCou: FMM=F IPFlag=           0 FMFlag=      100000 FMFlg1=        2000
         NFxFlg=           0 DoJE=T BraDBF=F KetDBF=T FulRan=T
         wScrn=  0.000000 ICntrl=       500 IOpCl=  0 I1Cent=   200000004 NGrid=           0
         NMat0=    1 NMatS0=      1 NMatT0=    0 NMatD0=    1 NMtDS0=    0 NMtDT0=    0
 Petite list used in FoFCou.
 Harris En= -1694.13544932920    
 JPrj=0 DoOrth=F DoCkMO=F.
 Initial guess orbital symmetries:
       Occupied  (A") (A') (A") (A') (A') (A") (A') (A") (A") (A')
                 (A") (A') (A") (A') (A") (A') (A") (A') (A') (A")
                 (A") (A') (A") (A') (A') (A') (A') (A') (A") (A")
                 (A') (A') (A") (A') (A") (A') (A") (A') (A") (A')
                 (A') (A") (A') (A") (A') (A') (A") (A") (A') (A')
                 (A") (A") (A') (A') (A') (A') (A") (A") (A') (A')
                 (A") (A") (A") (A") (A') (A') (A') (A') (A") (A")
                 (A") (A") (A') (A') (A") (A") (A') (A') (A') (A')
                 (A') (A') (A") (A") (A") (A") (A") (A') (A") (A')
                 (A') (A') (A") (A") (A') (A') (A') (A') (A") (A")
                 (A') (A') (A") (A") (A") (A") (A') (A') (A') (A')
                 (A") (A") (A') (A') (A") (A") (A') (A') (A") (A")
                 (A") (A") (A') (A') (A') (A') (A") (A") (A') (A')
                 (A") (A") (A') (A') (A") (A") (A') (A') (A') (A')
                 (A") (A") (A") (A") (A') (A')
       Virtual   (A') (A') (A") (A") (A") (A") (A') (A') (A') (A')
                 (A") (A") (A') (A') (A") (A") (A') (A") (A') (A')
                 (A') (A') (A") (A") (A') (A') (A") (A") (A') (A')
                 (A") (A') (A") (A") (A') (A") (A") (A') (A') (A')
                 (A") (A') (A") (A') (A") (A') (A") (A') (A') (A')
                 (A') (A") (A') (A") (A') (A') (A') (A") (A") (A')
                 (A") (A") (A") (A") (A') (A') (A") (A") (A") (A')
                 (A') (A") (A') (A') (A") (A') (A") (A") (A') (A")
                 (A') (A') (A') (A") (A') (A') (A") (A') (A") (A")
                 (A') (A') (A") (A') (A") (A') (A") (A') (A") (A")
                 (A") (A') (A") (A') (A") (A') (A') (A') (A") (A')
                 (A') (A') (A") (A') (A') (A") (A') (A") (A') (A")
                 (A') (A") (A') (A") (A") (A") (A') (A") (A') (A')
                 (A") (A") (A") (A") (A') (A") (A') (A') (A") (A')
                 (A") (A') (A') (A') (A') (A") (A') (A') (A") (A')
                 (A') (A') (A") (A") (A') (A") (A') (A') (A") (A")
                 (A') (A") (A") (A") (A') (A') (A") (A') (A") (A')
                 (A") (A') (A") (A') (A") (A') (A') (A") (A') (A")
                 (A') (A") (A") (A') (A') (A") (A') (A') (A') (A')
                 (A") (A') (A") (A") (A') (A") (A') (A') (A") (A")
                 (A') (A") (A') (A") (A') (A') (A") (A') (A') (A")
                 (A') (A") (A") (A") (A') (A') (A") (A") (A") (A')
                 (A') (A") (A") (A') (A") (A") (A') (A') (A') (A')
                 (A") (A') (A') (A") (A") (A') (A') (A") (A') (A")
                 (A") (A") (A') (A') (A") (A') (A') (A") (A') (A')
                 (A") (A') (A") (A") (A") (A') (A') (A") (A") (A')
                 (A') (A") (A') (A') (A") (A") (A") (A') (A') (A")
                 (A') (A") (A") (A') (A") (A") (A') (A') (A") (A')
                 (A') (A") (A") (A') (A') (A') (A") (A") (A') (A")
                 (A') (A') (A") (A') (A") (A') (A") (A") (A") (A")
                 (A") (A') (A") (A') (A') (A') (A') (A") (A') (A')
                 (A') (A") (A") (A') (A") (A") (A") (A") (A') (A')
                 (A') (A') (A") (A') (A') (A') (A") (A") (A') (A")
                 (A") (A") (A') (A") (A') (A") (A') (A') (A") (A')
                 (A") (A') (A') (A") (A") (A') (A") (A') (A') (A")
                 (A') (A') (A") (A') (A") (A') (A') (A") (A') (A')
                 (A") (A') (A') (A") (A') (A") (A") (A") (A") (A")
                 (A") (A") (A') (A") (A') (A') (A") (A') (A') (A')
                 (A") (A') (A') (A") (A') (A') (A') (A") (A') (A")
                 (A') (A") (A') (A") (A') (A") (A') (A") (A") (A")
                 (A') (A') (A") (A') (A") (A') (A') (A") (A") (A')
                 (A') (A") (A') (A') (A") (A') (A") (A') (A") (A')
                 (A') (A') (A') (A") (A') (A') (A") (A") (A') (A")
                 (A") (A") (A") (A') (A") (A') (A") (A') (A') (A")
                 (A") (A") (A') (A") (A') (A") (A') (A") (A') (A")
                 (A') (A') (A') (A') (A") (A") (A') (A") (A') (A")
                 (A") (A') (A') (A") (A') (A") (A") (A') (A") (A')
                 (A") (A') (A") (A") (A') (A") (A') (A') (A") (A')
                 (A") (A') (A') (A') (A") (A') (A") (A") (A") (A")
                 (A') (A') (A") (A") (A") (A") (A") (A") (A') (A')
                 (A') (A") (A') (A") (A') (A') (A') (A') (A") (A')
                 (A") (A') (A') (A') (A") (A") (A") (A') (A") (A')
                 (A") (A') (A") (A') (A") (A") (A') (A') (A") (A')
                 (A") (A') (A') (A') (A") (A") (A') (A") (A") (A')
                 (A") (A") (A') (A') (A') (A') (A") (A") (A") (A")
                 (A') (A") (A') (A") (A") (A') (A") (A') (A') (A')
                 (A") (A') (A') (A") (A') (A") (A") (A') (A') (A')
                 (A") (A") (A") (A") (A') (A') (A") (A') (A") (A')
                 (A') (A') (A') (A') (A") (A") (A") (A') (A') (A')
                 (A') (A") (A') (A") (A') (A') (A') (A") (A") (A")
                 (A") (A') (A") (A') (A') (A") (A') (A") (A") (A")
                 (A') (A') (A') (A") (A") (A') (A') (A') (A") (A")
                 (A") (A") (A') (A") (A') (A') (A') (A") (A') (A")
                 (A') (A') (A') (A') (A") (A") (A') (A') (A") (A")
                 (A') (A") (A") (A") (A") (A') (A") (A') (A") (A')
                 (A') (A') (A') (A') (A") (A') (A") (A') (A') (A")
                 (A') (A") (A") (A") (A') (A") (A') (A') (A") (A')
                 (A') (A") (A") (A') (A') (A") (A") (A") (A') (A')
                 (A") (A") (A') (A') (A') (A") (A') (A") (A") (A")
                 (A') (A') (A') (A") (A") (A') (A') (A') (A") (A")
                 (A') (A') (A") (A") (A') (A") (A') (A") (A') (A")
                 (A') (A") (A") (A") (A') (A') (A') (A') (A") (A")
                 (A') (A') (A") (A") (A') (A') (A') (A") (A') (A")
                 (A') (A") (A') (A") (A") (A') (A") (A') (A') (A')
                 (A") (A") (A') (A') (A") (A") (A') (A') (A') (A')
                 (A") (A") (A') (A') (A") (A") (A') (A') (A") (A")
                 (A") (A") (A') (A') (A") (A") (A') (A") (A') (A")
                 (A') (A') (A") (A") (A') (A') (A') (A') (A") (A")
                 (A") (A") (A') (A') (A") (A") (A') (A') (A') (A')
                 (A") (A") (A") (A") (A') (A') (A') (A') (A") (A")
                 (A') (A') (A") (A") (A') (A') (A") (A") (A') (A')
                 (A') (A") (A') (A")
 The electronic state of the initial guess is 1-A'.
 Leave Link  401 at Wed Sep 27 16:37:58 2023, MaxMem=  3221225472 cpu:             102.1 elap:               2.5
 (Enter /home/center/opt/aarch64/apps/gaussian16/c01/g16/l502.exe)
 Integral symmetry usage will be decided dynamically.
 Closed shell SCF:
 Using DIIS extrapolation, IDIIS=  1040.
 NGot=  3221225472 LenX=  3219153746 LenY=  3218144726
 Requested convergence on RMS density matrix=1.00D-08 within 128 cycles.
 Requested convergence on MAX density matrix=1.00D-06.
 Requested convergence on             energy=1.00D-06.
 No special actions if energy rises.
 Fock matrices will be formed incrementally for  20 cycles.
 Integral accuracy reduced to 1.0D-05 until final iterations.

 Cycle   1  Pass 0  IDiag  1:
 FoFJK:  IHMeth= 1 ICntrl=       0 DoSepK=F KAlg= 0 I1Cent=           0 FoldK=F
 IRaf= 530000000 NMat=       1 IRICut=       1 DoRegI=T DoRafI=F ISym2E= 1 IDoP0=0 IntGTp=1.
 FoFCou: FMM=F IPFlag=           0 FMFlag=      100000 FMFlg1=        2000
         NFxFlg=           0 DoJE=F BraDBF=F KetDBF=F FulRan=T
         wScrn=  0.000000 ICntrl=         0 IOpCl=  0 I1Cent=           0 NGrid=           0
         NMat0=    1 NMatS0=      1 NMatT0=    0 NMatD0=    1 NMtDS0=    0 NMtDT0=    0
 Petite list used in FoFCou.
 E= -1693.15581772597    
 DIIS: error= 4.41D-02 at cycle   1 NSaved=   1.
 NSaved= 1 IEnMin= 1 EnMin= -1693.15581772597     IErMin= 1 ErrMin= 4.41D-02
 ErrMax= 4.41D-02  0.00D+00 EMaxC= 1.00D-01 BMatC= 9.06D-01 BMatP= 9.06D-01
 IDIUse=3 WtCom= 5.59D-01 WtEn= 4.41D-01
 Coeff-Com:  0.100D+01
 Coeff-En:   0.100D+01
 Coeff:      0.100D+01
 Gap=     0.074 Goal=   None    Shift=    0.000
 GapD=    0.074 DampG=0.500 DampE=0.500 DampFc=0.2500 IDamp=-1.
 Damping current iteration by 2.50D-01
 RMSDP=1.78D-03 MaxDP=8.42D-02              OVMax= 1.60D-01

 Cycle   2  Pass 0  IDiag  1:
 RMSU=  4.32D-04    CP:  9.82D-01
 E= -1693.46845431635     Delta-E=       -0.312636590384 Rises=F Damp=T
 DIIS: error= 2.56D-02 at cycle   2 NSaved=   2.
 NSaved= 2 IEnMin= 2 EnMin= -1693.46845431635     IErMin= 2 ErrMin= 2.56D-02
 ErrMax= 2.56D-02  0.00D+00 EMaxC= 1.00D-01 BMatC= 2.99D-01 BMatP= 9.06D-01
 IDIUse=3 WtCom= 7.44D-01 WtEn= 2.56D-01
 Coeff-Com: -0.120D+01 0.220D+01
 Coeff-En:   0.000D+00 0.100D+01
 Coeff:     -0.890D+00 0.189D+01
 Gap=     0.069 Goal=   None    Shift=    0.000
 RMSDP=6.89D-04 MaxDP=3.32D-02 DE=-3.13D-01 OVMax= 8.42D-02

 Cycle   3  Pass 0  IDiag  1:
 RMSU=  4.44D-04    CP:  9.58D-01  2.17D+00
 E= -1694.03944934272     Delta-E=       -0.570995026370 Rises=F Damp=F
 DIIS: error= 5.34D-03 at cycle   3 NSaved=   3.
 NSaved= 3 IEnMin= 3 EnMin= -1694.03944934272     IErMin= 3 ErrMin= 5.34D-03
 ErrMax= 5.34D-03  0.00D+00 EMaxC= 1.00D-01 BMatC= 1.18D-02 BMatP= 2.99D-01
 IDIUse=3 WtCom= 9.47D-01 WtEn= 5.34D-02
 Coeff-Com: -0.260D+00 0.530D+00 0.730D+00
 Coeff-En:   0.000D+00 0.000D+00 0.100D+01
 Coeff:     -0.246D+00 0.502D+00 0.744D+00
 Gap=     0.073 Goal=   None    Shift=    0.000
 RMSDP=2.34D-04 MaxDP=1.29D-02 DE=-5.71D-01 OVMax= 9.02D-02

 Cycle   4  Pass 0  IDiag  1:
 RMSU=  1.96D-04    CP:  9.59D-01  2.11D+00  7.20D-01
 E= -1694.03570734422     Delta-E=        0.003741998501 Rises=F Damp=F
 DIIS: error= 7.66D-03 at cycle   4 NSaved=   4.
 NSaved= 4 IEnMin= 3 EnMin= -1694.03944934272     IErMin= 3 ErrMin= 5.34D-03
 ErrMax= 7.66D-03  0.00D+00 EMaxC= 1.00D-01 BMatC= 1.33D-02 BMatP= 1.18D-02
 IDIUse=3 WtCom= 1.03D-01 WtEn= 8.97D-01
 Coeff-Com: -0.484D-01 0.122D+00 0.516D+00 0.410D+00
 Coeff-En:   0.000D+00 0.000D+00 0.556D+00 0.444D+00
 Coeff:     -0.496D-02 0.125D-01 0.552D+00 0.441D+00
 Gap=     0.070 Goal=   None    Shift=    0.000
 RMSDP=1.44D-04 MaxDP=9.48D-03 DE= 3.74D-03 OVMax= 8.04D-02

 Cycle   5  Pass 0  IDiag  1:
 RMSU=  8.73D-05    CP:  9.59D-01  2.11D+00  7.88D-01  4.35D-01
 E= -1694.05032315900     Delta-E=       -0.014615814777 Rises=F Damp=F
 DIIS: error= 2.23D-03 at cycle   5 NSaved=   5.
 NSaved= 5 IEnMin= 5 EnMin= -1694.05032315900     IErMin= 5 ErrMin= 2.23D-03
 ErrMax= 2.23D-03  0.00D+00 EMaxC= 1.00D-01 BMatC= 1.14D-03 BMatP= 1.18D-02
 IDIUse=3 WtCom= 9.78D-01 WtEn= 2.23D-02
 Coeff-Com: -0.169D-01 0.371D-01 0.254D+00 0.257D+00 0.469D+00
 Coeff-En:   0.000D+00 0.000D+00 0.000D+00 0.473D-01 0.953D+00
 Coeff:     -0.165D-01 0.362D-01 0.248D+00 0.252D+00 0.480D+00
 Gap=     0.070 Goal=   None    Shift=    0.000
 RMSDP=5.25D-05 MaxDP=3.67D-03 DE=-1.46D-02 OVMax= 3.49D-02

 Cycle   6  Pass 0  IDiag  1:
 RMSU=  2.54D-05    CP:  9.58D-01  2.12D+00  8.01D-01  5.28D-01  5.24D-01
 E= -1694.05136985720     Delta-E=       -0.001046698196 Rises=F Damp=F
 DIIS: error= 1.35D-03 at cycle   6 NSaved=   6.
 NSaved= 6 IEnMin= 6 EnMin= -1694.05136985720     IErMin= 6 ErrMin= 1.35D-03
 ErrMax= 1.35D-03  0.00D+00 EMaxC= 1.00D-01 BMatC= 2.69D-04 BMatP= 1.14D-03
 IDIUse=3 WtCom= 9.86D-01 WtEn= 1.35D-02
 Coeff-Com: -0.381D-02 0.617D-02 0.103D+00 0.121D+00 0.350D+00 0.424D+00
 Coeff-En:   0.000D+00 0.000D+00 0.000D+00 0.000D+00 0.210D+00 0.790D+00
 Coeff:     -0.376D-02 0.609D-02 0.101D+00 0.119D+00 0.349D+00 0.429D+00
 Gap=     0.070 Goal=   None    Shift=    0.000
 RMSDP=2.09D-05 MaxDP=1.72D-03 DE=-1.05D-03 OVMax= 1.52D-02

 Cycle   7  Pass 0  IDiag  1:
 RMSU=  8.77D-06    CP:  9.58D-01  2.12D+00  8.04D-01  5.08D-01  6.00D-01
                    CP:  3.18D-01
 E= -1694.05165992136     Delta-E=       -0.000290064164 Rises=F Damp=F
 DIIS: error= 3.70D-04 at cycle   7 NSaved=   7.
 NSaved= 7 IEnMin= 7 EnMin= -1694.05165992136     IErMin= 7 ErrMin= 3.70D-04
 ErrMax= 3.70D-04  0.00D+00 EMaxC= 1.00D-01 BMatC= 2.57D-05 BMatP= 2.69D-04
 IDIUse=3 WtCom= 9.96D-01 WtEn= 3.70D-03
 Coeff-Com: -0.847D-03 0.778D-03 0.552D-01 0.667D-01 0.213D+00 0.303D+00
 Coeff-Com:  0.363D+00
 Coeff-En:   0.000D+00 0.000D+00 0.000D+00 0.000D+00 0.000D+00 0.618D-01
 Coeff-En:   0.938D+00
 Coeff:     -0.844D-03 0.775D-03 0.550D-01 0.665D-01 0.212D+00 0.302D+00
 Coeff:      0.365D+00
 Gap=     0.070 Goal=   None    Shift=    0.000
 RMSDP=6.22D-06 MaxDP=3.56D-04 DE=-2.90D-04 OVMax= 3.02D-03

 Initial convergence to 1.0D-05 achieved.  Increase integral accuracy.
 Cycle   8  Pass 1  IDiag  1:
 E= -1694.05141338228     Delta-E=        0.000246539076 Rises=F Damp=F
 DIIS: error= 7.76D-04 at cycle   1 NSaved=   1.
 NSaved= 1 IEnMin= 1 EnMin= -1694.05141338228     IErMin= 1 ErrMin= 7.76D-04
 ErrMax= 7.76D-04  0.00D+00 EMaxC= 1.00D-01 BMatC= 4.09D-05 BMatP= 4.09D-05
 IDIUse=3 WtCom= 9.92D-01 WtEn= 7.76D-03
 Coeff-Com:  0.100D+01
 Coeff-En:   0.100D+01
 Coeff:      0.100D+01
 Gap=     0.071 Goal=   None    Shift=    0.000
 RMSDP=6.22D-06 MaxDP=3.56D-04 DE= 2.47D-04 OVMax= 2.57D-03

 Cycle   9  Pass 1  IDiag  1:
 RMSU=  3.39D-04    CP:  9.97D-01
 E= -1694.05144909297     Delta-E=       -0.000035710686 Rises=F Damp=F
 DIIS: error= 2.29D-04 at cycle   2 NSaved=   2.
 NSaved= 2 IEnMin= 2 EnMin= -1694.05144909297     IErMin= 2 ErrMin= 2.29D-04
 ErrMax= 2.29D-04  0.00D+00 EMaxC= 1.00D-01 BMatC= 5.69D-06 BMatP= 4.09D-05
 IDIUse=3 WtCom= 9.98D-01 WtEn= 2.29D-03
 Coeff-Com:  0.149D+00 0.851D+00
 Coeff-En:   0.000D+00 0.100D+01
 Coeff:      0.148D+00 0.852D+00
 Gap=     0.070 Goal=   None    Shift=    0.000
 RMSDP=9.04D-06 MaxDP=6.81D-04 DE=-3.57D-05 OVMax= 6.12D-03

 Cycle  10  Pass 1  IDiag  1:
 RMSU=  8.66D-06    CP:  9.97D-01  1.01D+00
 E= -1694.05141836614     Delta-E=        0.000030726827 Rises=F Damp=F
 DIIS: error= 5.48D-04 at cycle   3 NSaved=   3.
 NSaved= 3 IEnMin= 2 EnMin= -1694.05144909297     IErMin= 2 ErrMin= 2.29D-04
 ErrMax= 5.48D-04  0.00D+00 EMaxC= 1.00D-01 BMatC= 2.98D-05 BMatP= 5.69D-06
 IDIUse=3 WtCom= 2.99D-01 WtEn= 7.01D-01
 Coeff-Com: -0.164D-02 0.698D+00 0.304D+00
 Coeff-En:   0.000D+00 0.767D+00 0.233D+00
 Coeff:     -0.492D-03 0.747D+00 0.254D+00
 Gap=     0.070 Goal=   None    Shift=    0.000
 RMSDP=5.02D-06 MaxDP=3.72D-04 DE= 3.07D-05 OVMax= 3.53D-03

 Cycle  11  Pass 1  IDiag  1:
 RMSU=  8.82D-07    CP:  9.96D-01  1.01D+00  4.37D-01
 E= -1694.05145476098     Delta-E=       -0.000036394835 Rises=F Damp=F
 DIIS: error= 9.40D-05 at cycle   4 NSaved=   4.
 NSaved= 4 IEnMin= 4 EnMin= -1694.05145476098     IErMin= 4 ErrMin= 9.40D-05
 ErrMax= 9.40D-05  0.00D+00 EMaxC= 1.00D-01 BMatC= 1.20D-06 BMatP= 5.69D-06
 IDIUse=1 WtCom= 1.00D+00 WtEn= 0.00D+00
 Coeff-Com: -0.387D-02 0.448D+00 0.112D+00 0.444D+00
 Coeff:     -0.387D-02 0.448D+00 0.112D+00 0.444D+00
 Gap=     0.070 Goal=   None    Shift=    0.000
 RMSDP=1.18D-06 MaxDP=9.66D-05 DE=-3.64D-05 OVMax= 7.94D-04

 Cycle  12  Pass 1  IDiag  1:
 RMSU=  3.73D-07    CP:  9.97D-01  1.01D+00  3.10D-01  7.95D-01
 E= -1694.05145618826     Delta-E=       -0.000001427278 Rises=F Damp=F
 DIIS: error= 4.00D-06 at cycle   5 NSaved=   5.
 NSaved= 5 IEnMin= 5 EnMin= -1694.05145618826     IErMin= 5 ErrMin= 4.00D-06
 ErrMax= 4.00D-06  0.00D+00 EMaxC= 1.00D-01 BMatC= 4.94D-09 BMatP= 1.20D-06
 IDIUse=1 WtCom= 1.00D+00 WtEn= 0.00D+00
 Coeff-Com: -0.238D-02 0.264D+00 0.627D-01 0.277D+00 0.399D+00
 Coeff:     -0.238D-02 0.264D+00 0.627D-01 0.277D+00 0.399D+00
 Gap=     0.070 Goal=   None    Shift=    0.000
 RMSDP=1.05D-07 MaxDP=8.41D-06 DE=-1.43D-06 OVMax= 6.33D-05

 Cycle  13  Pass 1  IDiag  1:
 RMSU=  9.56D-08    CP:  9.97D-01  1.01D+00  3.09D-01  8.12D-01  8.95D-01
 E= -1694.05145619359     Delta-E=       -0.000000005331 Rises=F Damp=F
 DIIS: error= 1.97D-06 at cycle   6 NSaved=   6.
 NSaved= 6 IEnMin= 6 EnMin= -1694.05145619359     IErMin= 6 ErrMin= 1.97D-06
 ErrMax= 1.97D-06  0.00D+00 EMaxC= 1.00D-01 BMatC= 7.72D-10 BMatP= 4.94D-09
 IDIUse=1 WtCom= 1.00D+00 WtEn= 0.00D+00
 Coeff-Com: -0.954D-03 0.103D+00 0.234D-01 0.113D+00 0.278D+00 0.484D+00
 Coeff:     -0.954D-03 0.103D+00 0.234D-01 0.113D+00 0.278D+00 0.484D+00
 Gap=     0.070 Goal=   None    Shift=    0.000
 RMSDP=3.67D-08 MaxDP=2.39D-06 DE=-5.33D-09 OVMax= 2.35D-05

 Cycle  14  Pass 1  IDiag  1:
 RMSU=  2.67D-08    CP:  9.97D-01  1.01D+00  3.09D-01  8.08D-01  9.26D-01
                    CP:  7.75D-01
 E= -1694.05145619446     Delta-E=       -0.000000000869 Rises=F Damp=F
 DIIS: error= 4.27D-07 at cycle   7 NSaved=   7.
 NSaved= 7 IEnMin= 7 EnMin= -1694.05145619446     IErMin= 7 ErrMin= 4.27D-07
 ErrMax= 4.27D-07  0.00D+00 EMaxC= 1.00D-01 BMatC= 5.78D-11 BMatP= 7.72D-10
 IDIUse=1 WtCom= 1.00D+00 WtEn= 0.00D+00
 Coeff-Com: -0.402D-03 0.426D-01 0.953D-02 0.474D-01 0.131D+00 0.293D+00
 Coeff-Com:  0.476D+00
 Coeff:     -0.402D-03 0.426D-01 0.953D-02 0.474D-01 0.131D+00 0.293D+00
 Coeff:      0.476D+00
 Gap=     0.070 Goal=   None    Shift=    0.000
 RMSDP=1.14D-08 MaxDP=4.98D-07 DE=-8.69D-10 OVMax= 5.06D-06

 Cycle  15  Pass 1  IDiag  1:
 RMSU=  6.88D-09    CP:  9.97D-01  1.01D+00  3.09D-01  8.10D-01  9.27D-01
                    CP:  7.97D-01  6.81D-01
 E= -1694.05145619449     Delta-E=       -0.000000000038 Rises=F Damp=F
 DIIS: error= 2.42D-07 at cycle   8 NSaved=   8.
 NSaved= 8 IEnMin= 8 EnMin= -1694.05145619449     IErMin= 8 ErrMin= 2.42D-07
 ErrMax= 2.42D-07  0.00D+00 EMaxC= 1.00D-01 BMatC= 1.29D-11 BMatP= 5.78D-11
 IDIUse=1 WtCom= 1.00D+00 WtEn= 0.00D+00
 Coeff-Com: -0.142D-04 0.100D-02 0.369D-04 0.216D-02 0.171D-01 0.923D-01
 Coeff-Com:  0.330D+00 0.557D+00
 Coeff:     -0.142D-04 0.100D-02 0.369D-04 0.216D-02 0.171D-01 0.923D-01
 Coeff:      0.330D+00 0.557D+00
 Gap=     0.070 Goal=   None    Shift=    0.000
 RMSDP=4.81D-09 MaxDP=2.14D-07 DE=-3.82D-11 OVMax= 2.23D-06

 SCF Done:  E(RB3LYP) =  -1694.05145619     A.U. after   15 cycles
            NFock= 15  Conv=0.48D-08     -V/T= 2.0044
 KE= 1.686677092131D+03 PE=-1.294078248392D+04 EE= 5.054842932271D+03
 Leave Link  502 at Wed Sep 27 16:39:41 2023, MaxMem=  3221225472 cpu:            3511.3 elap:             100.2
 (Enter /home/center/opt/aarch64/apps/gaussian16/c01/g16/l601.exe)
 Copying SCF densities to generalized density rwf, IOpCl= 0 IROHF=0.

 **********************************************************************

            Population analysis using the SCF Density.

 **********************************************************************

 Orbital symmetries:
       Occupied  (A") (A') (A') (A") (A") (A') (A") (A') (A') (A')
                 (A") (A') (A") (A') (A") (A') (A") (A') (A") (A')
                 (A') (A") (A') (A") (A") (A') (A") (A') (A") (A')
                 (A") (A') (A') (A") (A') (A') (A") (A') (A") (A')
                 (A") (A') (A") (A') (A') (A') (A") (A") (A') (A')
                 (A") (A") (A') (A') (A') (A") (A') (A") (A') (A')
                 (A") (A") (A") (A") (A') (A') (A') (A') (A") (A")
                 (A") (A") (A') (A') (A") (A') (A") (A') (A') (A')
                 (A') (A") (A") (A') (A") (A") (A') (A') (A") (A")
                 (A') (A') (A') (A") (A") (A') (A") (A") (A') (A')
                 (A') (A") (A') (A') (A') (A") (A') (A') (A") (A')
                 (A") (A') (A") (A") (A") (A") (A") (A") (A') (A')
                 (A') (A') (A') (A') (A") (A") (A") (A') (A") (A")
                 (A') (A") (A') (A') (A") (A") (A') (A') (A') (A')
                 (A") (A") (A") (A") (A') (A')
       Virtual   (A') (A') (A") (A") (A") (A") (A') (A') (A') (A")
                 (A') (A') (A") (A') (A") (A') (A') (A') (A") (A")
                 (A') (A') (A") (A') (A") (A") (A') (A") (A') (A")
                 (A") (A') (A") (A') (A') (A") (A") (A') (A") (A')
                 (A') (A') (A') (A") (A') (A") (A") (A") (A") (A')
                 (A') (A') (A') (A') (A') (A') (A") (A') (A') (A")
                 (A") (A") (A") (A") (A') (A') (A") (A") (A') (A")
                 (A') (A') (A") (A') (A") (A') (A") (A") (A') (A")
                 (A') (A') (A') (A') (A') (A") (A") (A') (A') (A")
                 (A') (A') (A") (A') (A") (A") (A') (A") (A") (A")
                 (A') (A') (A") (A') (A') (A") (A') (A') (A") (A")
                 (A") (A") (A') (A") (A') (A') (A") (A") (A') (A')
                 (A') (A") (A') (A') (A') (A') (A') (A") (A") (A')
                 (A') (A") (A") (A') (A') (A') (A") (A') (A") (A")
                 (A') (A') (A") (A') (A") (A') (A") (A') (A") (A")
                 (A') (A") (A') (A") (A") (A") (A') (A') (A') (A")
                 (A') (A") (A') (A') (A") (A') (A") (A") (A') (A")
                 (A") (A') (A") (A') (A') (A') (A') (A') (A") (A")
                 (A') (A') (A") (A") (A") (A') (A') (A") (A") (A')
                 (A") (A") (A') (A") (A') (A') (A") (A') (A") (A')
                 (A') (A") (A') (A") (A') (A") (A') (A') (A") (A')
                 (A") (A') (A') (A") (A") (A') (A") (A') (A") (A')
                 (A") (A') (A") (A") (A') (A") (A') (A') (A") (A")
                 (A') (A") (A') (A') (A") (A') (A') (A") (A') (A")
                 (A") (A") (A') (A') (A') (A") (A') (A") (A') (A")
                 (A') (A") (A') (A") (A") (A') (A') (A") (A') (A")
                 (A") (A') (A") (A') (A') (A') (A") (A') (A') (A")
                 (A") (A") (A') (A") (A") (A') (A') (A") (A") (A')
                 (A') (A") (A') (A') (A") (A') (A") (A") (A") (A')
                 (A') (A') (A") (A") (A") (A') (A') (A") (A') (A')
                 (A") (A") (A") (A') (A") (A') (A") (A') (A') (A')
                 (A') (A") (A') (A') (A") (A") (A") (A') (A") (A")
                 (A') (A") (A') (A') (A') (A") (A') (A") (A') (A")
                 (A") (A") (A') (A") (A') (A") (A') (A') (A") (A')
                 (A") (A') (A') (A') (A") (A") (A') (A') (A") (A')
                 (A') (A") (A") (A") (A') (A') (A') (A') (A') (A")
                 (A') (A") (A') (A") (A') (A") (A") (A") (A") (A')
                 (A") (A") (A") (A') (A") (A') (A') (A") (A') (A')
                 (A") (A') (A") (A') (A') (A") (A') (A") (A') (A')
                 (A') (A') (A") (A") (A') (A") (A") (A') (A') (A")
                 (A') (A") (A") (A') (A") (A') (A') (A') (A") (A")
                 (A') (A') (A") (A') (A') (A") (A") (A") (A') (A')
                 (A") (A') (A') (A') (A') (A") (A') (A") (A') (A")
                 (A") (A") (A") (A') (A") (A') (A") (A') (A') (A')
                 (A") (A") (A") (A') (A") (A") (A') (A') (A") (A")
                 (A') (A') (A") (A') (A") (A') (A') (A") (A") (A')
                 (A") (A") (A') (A') (A') (A") (A") (A') (A') (A')
                 (A") (A") (A') (A") (A") (A') (A") (A') (A") (A')
                 (A') (A") (A") (A') (A') (A') (A") (A") (A') (A")
                 (A") (A") (A') (A") (A") (A") (A") (A") (A') (A')
                 (A") (A') (A') (A') (A") (A') (A') (A') (A") (A")
                 (A') (A') (A') (A') (A") (A") (A') (A") (A') (A")
                 (A") (A") (A') (A") (A') (A') (A") (A') (A') (A")
                 (A") (A') (A") (A") (A") (A') (A") (A') (A') (A')
                 (A") (A") (A') (A') (A") (A') (A") (A') (A") (A")
                 (A") (A') (A") (A') (A") (A') (A') (A") (A') (A')
                 (A") (A') (A") (A') (A") (A') (A') (A") (A") (A")
                 (A') (A') (A') (A') (A') (A") (A') (A') (A") (A')
                 (A") (A") (A") (A') (A") (A') (A') (A") (A") (A')
                 (A") (A') (A") (A") (A') (A") (A') (A") (A') (A')
                 (A") (A') (A') (A") (A') (A") (A') (A') (A") (A')
                 (A') (A") (A') (A") (A') (A') (A") (A') (A') (A")
                 (A") (A") (A') (A') (A') (A") (A") (A') (A") (A")
                 (A') (A") (A') (A") (A') (A') (A') (A') (A") (A")
                 (A') (A") (A") (A") (A") (A') (A') (A') (A") (A')
                 (A") (A') (A') (A") (A') (A') (A') (A") (A') (A")
                 (A") (A") (A') (A') (A") (A") (A') (A') (A') (A")
                 (A') (A") (A') (A") (A") (A') (A") (A") (A') (A')
                 (A') (A') (A") (A") (A') (A") (A') (A") (A") (A")
                 (A') (A') (A") (A') (A') (A') (A") (A') (A") (A")
                 (A') (A') (A") (A") (A') (A") (A') (A") (A') (A")
                 (A') (A") (A") (A") (A') (A') (A') (A') (A") (A")
                 (A') (A') (A") (A') (A") (A') (A') (A') (A") (A")
                 (A") (A') (A') (A") (A") (A') (A') (A") (A') (A")
                 (A') (A") (A') (A") (A') (A') (A") (A') (A') (A')
                 (A") (A') (A") (A') (A") (A") (A') (A') (A") (A")
                 (A") (A') (A") (A") (A') (A") (A') (A") (A') (A")
                 (A') (A') (A") (A") (A') (A') (A') (A') (A") (A")
                 (A") (A") (A') (A') (A") (A') (A") (A') (A') (A')
                 (A") (A") (A") (A") (A') (A') (A') (A") (A') (A")
                 (A') (A') (A") (A') (A") (A') (A") (A') (A") (A')
                 (A') (A") (A') (A")
 The electronic state is 1-A'.
 Alpha  occ. eigenvalues --  -10.19410 -10.19410 -10.19330 -10.19330 -10.19326
 Alpha  occ. eigenvalues --  -10.19326 -10.19225 -10.19225 -10.18425 -10.18395
 Alpha  occ. eigenvalues --  -10.18368 -10.18368 -10.18365 -10.18365 -10.18336
 Alpha  occ. eigenvalues --  -10.18336 -10.18331 -10.18331 -10.18274 -10.18274
 Alpha  occ. eigenvalues --  -10.18268 -10.18268 -10.18268 -10.18268 -10.18241
 Alpha  occ. eigenvalues --  -10.18241 -10.18197 -10.18197 -10.18148 -10.18148
 Alpha  occ. eigenvalues --  -10.17366 -10.17366 -10.17346 -10.17331 -10.17331
 Alpha  occ. eigenvalues --  -10.17300 -10.17300 -10.17293 -10.17264 -10.17264
 Alpha  occ. eigenvalues --  -10.17261 -10.17261 -10.17190 -10.17189  -0.89788
 Alpha  occ. eigenvalues --   -0.88739  -0.88302  -0.87282  -0.85981  -0.84974
 Alpha  occ. eigenvalues --   -0.82845  -0.81844  -0.80273  -0.79207  -0.78950
 Alpha  occ. eigenvalues --   -0.78756  -0.77952  -0.77720  -0.76427  -0.75405
 Alpha  occ. eigenvalues --   -0.74684  -0.73681  -0.73336  -0.72318  -0.69635
 Alpha  occ. eigenvalues --   -0.68607  -0.67774  -0.66769  -0.63163  -0.62793
 Alpha  occ. eigenvalues --   -0.62147  -0.61804  -0.61559  -0.60480  -0.60406
 Alpha  occ. eigenvalues --   -0.59733  -0.59351  -0.58707  -0.58115  -0.57118
 Alpha  occ. eigenvalues --   -0.53136  -0.53005  -0.52716  -0.52136  -0.51978
 Alpha  occ. eigenvalues --   -0.51726  -0.50085  -0.49058  -0.48932  -0.47959
 Alpha  occ. eigenvalues --   -0.47582  -0.46588  -0.46567  -0.46033  -0.45906
 Alpha  occ. eigenvalues --   -0.45484  -0.44976  -0.44899  -0.44350  -0.43607
 Alpha  occ. eigenvalues --   -0.43369  -0.43009  -0.42601  -0.42259  -0.41996
 Alpha  occ. eigenvalues --   -0.41975  -0.41812  -0.41185  -0.41131  -0.40972
 Alpha  occ. eigenvalues --   -0.40821  -0.40792  -0.40106  -0.40022  -0.39835
 Alpha  occ. eigenvalues --   -0.39005  -0.38618  -0.37611  -0.37171  -0.36751
 Alpha  occ. eigenvalues --   -0.36168  -0.35975  -0.35800  -0.34938  -0.34526
 Alpha  occ. eigenvalues --   -0.34236  -0.33516  -0.33503  -0.33343  -0.33227
 Alpha  occ. eigenvalues --   -0.32673  -0.32371  -0.31793  -0.31007  -0.30064
 Alpha  occ. eigenvalues --   -0.29078  -0.28824  -0.27854  -0.27054  -0.26044
 Alpha  occ. eigenvalues --   -0.24788  -0.23800  -0.23027  -0.22004  -0.18318
 Alpha  occ. eigenvalues --   -0.17262
 Alpha virt. eigenvalues --   -0.10217  -0.09165  -0.04927  -0.03893  -0.03200
 Alpha virt. eigenvalues --   -0.02182  -0.00674   0.00417   0.01618   0.01637
 Alpha virt. eigenvalues --    0.02148   0.02623   0.02917   0.03568   0.03827
 Alpha virt. eigenvalues --    0.03882   0.04341   0.05240   0.05451   0.05742
 Alpha virt. eigenvalues --    0.05892   0.06429   0.07089   0.07562   0.07756
 Alpha virt. eigenvalues --    0.07897   0.08729   0.08854   0.09218   0.09383
 Alpha virt. eigenvalues --    0.10303   0.10565   0.10800   0.10925   0.11341
 Alpha virt. eigenvalues --    0.12065   0.12643   0.13011   0.13230   0.14004
 Alpha virt. eigenvalues --    0.14410   0.14703   0.15684   0.15885   0.17651
 Alpha virt. eigenvalues --    0.18092   0.18267   0.18671   0.19554   0.19576
 Alpha virt. eigenvalues --    0.19772   0.20056   0.22378   0.22628   0.23531
 Alpha virt. eigenvalues --    0.23705   0.24083   0.24106   0.25081   0.25194
 Alpha virt. eigenvalues --    0.25873   0.26121   0.27090   0.27295   0.27701
 Alpha virt. eigenvalues --    0.27885   0.28097   0.28160   0.28689   0.28816
 Alpha virt. eigenvalues --    0.28821   0.29286   0.29734   0.29956   0.30142
 Alpha virt. eigenvalues --    0.30359   0.30774   0.31225   0.31322   0.31791
 Alpha virt. eigenvalues --    0.32721   0.34227   0.34312   0.35039   0.36055
 Alpha virt. eigenvalues --    0.36075   0.36617   0.36775   0.37134   0.37181
 Alpha virt. eigenvalues --    0.37339   0.37533   0.37571   0.37855   0.38038
 Alpha virt. eigenvalues --    0.38241   0.38359   0.38498   0.38753   0.39167
 Alpha virt. eigenvalues --    0.39283   0.39499   0.39541   0.39816   0.40200
 Alpha virt. eigenvalues --    0.40293   0.40646   0.40709   0.40871   0.41504
 Alpha virt. eigenvalues --    0.41923   0.42047   0.42136   0.42184   0.42315
 Alpha virt. eigenvalues --    0.42399   0.42584   0.42720   0.43111   0.43389
 Alpha virt. eigenvalues --    0.43616   0.43690   0.44154   0.44637   0.44932
 Alpha virt. eigenvalues --    0.45100   0.45345   0.45426   0.45687   0.45775
 Alpha virt. eigenvalues --    0.45899   0.45952   0.45985   0.46333   0.46399
 Alpha virt. eigenvalues --    0.46768   0.46887   0.47113   0.47170   0.47405
 Alpha virt. eigenvalues --    0.47448   0.47936   0.48149   0.48519   0.48651
 Alpha virt. eigenvalues --    0.48986   0.49207   0.49285   0.49315   0.49780
 Alpha virt. eigenvalues --    0.49998   0.50187   0.50512   0.50842   0.51587
 Alpha virt. eigenvalues --    0.51883   0.51941   0.52016   0.52391   0.52965
 Alpha virt. eigenvalues --    0.53944   0.54006   0.54233   0.54474   0.54873
 Alpha virt. eigenvalues --    0.55784   0.55995   0.57217   0.57379   0.57426
 Alpha virt. eigenvalues --    0.58573   0.58647   0.59096   0.59558   0.59926
 Alpha virt. eigenvalues --    0.60449   0.60681   0.60943   0.61425   0.61452
 Alpha virt. eigenvalues --    0.61547   0.61605   0.62193   0.62264   0.62390
 Alpha virt. eigenvalues --    0.62580   0.62839   0.62976   0.63508   0.63545
 Alpha virt. eigenvalues --    0.63981   0.64347   0.64351   0.64767   0.65266
 Alpha virt. eigenvalues --    0.65493   0.65818   0.65821   0.66101   0.66471
 Alpha virt. eigenvalues --    0.67319   0.67567   0.68734   0.69757   0.70283
 Alpha virt. eigenvalues --    0.70445   0.70701   0.71547   0.71622   0.71915
 Alpha virt. eigenvalues --    0.72334   0.72453   0.73038   0.73174   0.73763
 Alpha virt. eigenvalues --    0.74035   0.74331   0.74762   0.75348   0.76224
 Alpha virt. eigenvalues --    0.76498   0.76887   0.77035   0.77298   0.77664
 Alpha virt. eigenvalues --    0.78172   0.78855   0.79229   0.79313   0.80051
 Alpha virt. eigenvalues --    0.80070   0.80557   0.80569   0.81053   0.81676
 Alpha virt. eigenvalues --    0.81818   0.82132   0.82703   0.82845   0.82864
 Alpha virt. eigenvalues --    0.83475   0.83962   0.84031   0.84422   0.84887
 Alpha virt. eigenvalues --    0.85193   0.85780   0.86542   0.87025   0.88175
 Alpha virt. eigenvalues --    0.88975   0.89471   0.89532   0.89935   0.90802
 Alpha virt. eigenvalues --    0.91027   0.91439   0.91697   0.93089   0.93145
 Alpha virt. eigenvalues --    0.93380   0.94340   0.95165   0.95347   0.95703
 Alpha virt. eigenvalues --    0.95740   0.95967   0.96421   0.97261   0.97357
 Alpha virt. eigenvalues --    0.97683   0.98235   0.98348   0.99131   0.99477
 Alpha virt. eigenvalues --    0.99736   1.00578   1.00943   1.01732   1.02820
 Alpha virt. eigenvalues --    1.02880   1.02955   1.03250   1.03677   1.03732
 Alpha virt. eigenvalues --    1.04138   1.04161   1.05159   1.05248   1.05265
 Alpha virt. eigenvalues --    1.05863   1.06008   1.06016   1.06163   1.06591
 Alpha virt. eigenvalues --    1.07024   1.07351   1.07601   1.07715   1.07998
 Alpha virt. eigenvalues --    1.08131   1.09029   1.09060   1.09608   1.09747
 Alpha virt. eigenvalues --    1.10176   1.10625   1.11082   1.11765   1.12636
 Alpha virt. eigenvalues --    1.12944   1.13237   1.13680   1.13802   1.14100
 Alpha virt. eigenvalues --    1.14746   1.15102   1.15416   1.15495   1.15914
 Alpha virt. eigenvalues --    1.17055   1.17996   1.18025   1.19317   1.20248
 Alpha virt. eigenvalues --    1.21145   1.21531   1.22788   1.22815   1.23294
 Alpha virt. eigenvalues --    1.24030   1.25297   1.27829   1.28291   1.30099
 Alpha virt. eigenvalues --    1.30107   1.30701   1.32182   1.32344   1.32939
 Alpha virt. eigenvalues --    1.33608   1.34711   1.34901   1.36125   1.37714
 Alpha virt. eigenvalues --    1.38374   1.39289   1.39893   1.40018   1.40144
 Alpha virt. eigenvalues --    1.40464   1.40499   1.40745   1.41353   1.42667
 Alpha virt. eigenvalues --    1.43070   1.43546   1.44009   1.44056   1.45211
 Alpha virt. eigenvalues --    1.45309   1.45826   1.46082   1.46755   1.46945
 Alpha virt. eigenvalues --    1.47499   1.47807   1.48197   1.48894   1.49300
 Alpha virt. eigenvalues --    1.49336   1.49499   1.49906   1.50050   1.50212
 Alpha virt. eigenvalues --    1.50855   1.51166   1.51227   1.52452   1.52959
 Alpha virt. eigenvalues --    1.53185   1.54083   1.54098   1.54347   1.54577
 Alpha virt. eigenvalues --    1.54723   1.54845   1.54909   1.54937   1.55470
 Alpha virt. eigenvalues --    1.56341   1.56874   1.57461   1.57662   1.57871
 Alpha virt. eigenvalues --    1.59050   1.59536   1.59740   1.60252   1.60435
 Alpha virt. eigenvalues --    1.60777   1.61203   1.62451   1.63011   1.63520
 Alpha virt. eigenvalues --    1.64263   1.65453   1.65878   1.66427   1.67382
 Alpha virt. eigenvalues --    1.69347   1.69435   1.69737   1.70356   1.70419
 Alpha virt. eigenvalues --    1.70753   1.71092   1.71690   1.72112   1.72243
 Alpha virt. eigenvalues --    1.72967   1.73025   1.73238   1.73309   1.73389
 Alpha virt. eigenvalues --    1.73628   1.73678   1.73890   1.74620   1.74730
 Alpha virt. eigenvalues --    1.77126   1.78129   1.78610   1.79067   1.79421
 Alpha virt. eigenvalues --    1.79902   1.80081   1.80108   1.80330   1.81382
 Alpha virt. eigenvalues --    1.81407   1.81569   1.81984   1.82343   1.82537
 Alpha virt. eigenvalues --    1.82749   1.84167   1.84443   1.84588   1.84972
 Alpha virt. eigenvalues --    1.85472   1.86237   1.87140   1.87172   1.87356
 Alpha virt. eigenvalues --    1.87728   1.88001   1.88180   1.88277   1.88363
 Alpha virt. eigenvalues --    1.88641   1.88842   1.89024   1.89926   1.90909
 Alpha virt. eigenvalues --    1.91175   1.91343   1.91374   1.92236   1.92306
 Alpha virt. eigenvalues --    1.92508   1.92796   1.92934   1.93086   1.93299
 Alpha virt. eigenvalues --    1.93325   1.93910   1.94052   1.94309   1.94784
 Alpha virt. eigenvalues --    1.95255   1.95424   1.95595   1.96071   1.97408
 Alpha virt. eigenvalues --    1.97969   1.99657   2.00098   2.00363   2.00429
 Alpha virt. eigenvalues --    2.00679   2.01043   2.01776   2.02613   2.03691
 Alpha virt. eigenvalues --    2.03874   2.05447   2.07009   2.07888   2.08822
 Alpha virt. eigenvalues --    2.08934   2.09471   2.09990   2.10221   2.10412
 Alpha virt. eigenvalues --    2.10504   2.11997   2.12791   2.13897   2.14758
 Alpha virt. eigenvalues --    2.15396   2.15946   2.16337   2.16828   2.16840
 Alpha virt. eigenvalues --    2.17755   2.19483   2.20459   2.20990   2.21434
 Alpha virt. eigenvalues --    2.21827   2.22284   2.22375   2.23105   2.23392
 Alpha virt. eigenvalues --    2.24342   2.24511   2.25112   2.26367   2.26514
 Alpha virt. eigenvalues --    2.26873   2.27225   2.27467   2.27837   2.27880
 Alpha virt. eigenvalues --    2.27911   2.28926   2.29530   2.30134   2.30874
 Alpha virt. eigenvalues --    2.33286   2.34487   2.35445   2.36340   2.38965
 Alpha virt. eigenvalues --    2.39266   2.39943   2.40155   2.40711   2.41372
 Alpha virt. eigenvalues --    2.42718   2.42775   2.43650   2.43948   2.45453
 Alpha virt. eigenvalues --    2.45651   2.46312   2.46377   2.46635   2.48176
 Alpha virt. eigenvalues --    2.51222   2.52220   2.52513   2.53237   2.53596
 Alpha virt. eigenvalues --    2.53644   2.54460   2.54627   2.55538   2.55845
 Alpha virt. eigenvalues --    2.56377   2.57497   2.58484   2.59154   2.59262
 Alpha virt. eigenvalues --    2.59542   2.59591   2.60267   2.60327   2.60636
 Alpha virt. eigenvalues --    2.60669   2.61164   2.61472   2.61664   2.62361
 Alpha virt. eigenvalues --    2.62532   2.62701   2.63471   2.63646   2.64142
 Alpha virt. eigenvalues --    2.64146   2.64853   2.65477   2.65957   2.66406
 Alpha virt. eigenvalues --    2.66785   2.66852   2.67264   2.67456   2.68096
 Alpha virt. eigenvalues --    2.68274   2.68314   2.68904   2.68956   2.69278
 Alpha virt. eigenvalues --    2.69385   2.69441   2.69831   2.69999   2.70063
 Alpha virt. eigenvalues --    2.70409   2.70675   2.71264   2.71777   2.72798
 Alpha virt. eigenvalues --    2.73305   2.74308   2.74400   2.74926   2.75230
 Alpha virt. eigenvalues --    2.75760   2.76548   2.77173   2.77573   2.77737
 Alpha virt. eigenvalues --    2.77799   2.77866   2.78084   2.78505   2.78750
 Alpha virt. eigenvalues --    2.79433   2.79536   2.80723   2.80983   2.81335
 Alpha virt. eigenvalues --    2.81908   2.82894   2.84429   2.84443   2.86033
 Alpha virt. eigenvalues --    2.86362   2.86423   2.86743   2.88026   2.88484
 Alpha virt. eigenvalues --    2.88695   2.90392   2.90642   2.90847   2.91702
 Alpha virt. eigenvalues --    2.92502   2.92834   2.93415   2.94640   2.94735
 Alpha virt. eigenvalues --    2.95192   2.95702   2.96090   2.96755   2.97177
 Alpha virt. eigenvalues --    2.98863   3.00111   3.00410   3.03307   3.03769
 Alpha virt. eigenvalues --    3.04794   3.06055   3.06851   3.07856   3.08206
 Alpha virt. eigenvalues --    3.08878   3.09374   3.15757   3.15815   3.16305
 Alpha virt. eigenvalues --    3.16871   3.16977   3.17579   3.19701   3.19901
 Alpha virt. eigenvalues --    3.20675   3.20949   3.23259   3.24295   3.28847
 Alpha virt. eigenvalues --    3.29433   3.29953   3.30375   3.31536   3.32473
 Alpha virt. eigenvalues --    3.34827   3.35329   3.35599   3.36124   3.36237
 Alpha virt. eigenvalues --    3.36555   3.36667   3.36878   3.37762   3.38781
 Alpha virt. eigenvalues --    3.39668   3.40679   3.41088   3.42624   3.44830
 Alpha virt. eigenvalues --    3.45195   3.45687   3.46147   3.47880   3.48095
 Alpha virt. eigenvalues --    3.49024   3.49252   3.50299   3.51091   3.52806
 Alpha virt. eigenvalues --    3.54126   3.57126   3.58242   3.58514   3.59396
 Alpha virt. eigenvalues --    3.61509   3.62327   3.62457   3.62975   3.63424
 Alpha virt. eigenvalues --    3.63523   3.65072   3.65620   3.65773   3.66793
 Alpha virt. eigenvalues --    3.67285   3.67457   3.68773   3.68803   4.00096
 Alpha virt. eigenvalues --    4.00150   4.01264   4.01292   4.01668   4.01899
 Alpha virt. eigenvalues --    4.02534   4.02878   4.15794   4.16371   4.17028
 Alpha virt. eigenvalues --    4.17366   4.17773   4.19348   4.20985   4.22036
 Alpha virt. eigenvalues --    4.22161   4.22526   4.23320   4.23600   4.25186
 Alpha virt. eigenvalues --    4.26983   4.38118   4.39689   4.61888   4.63530
 Alpha virt. eigenvalues --    4.78747   4.79342   4.79926   4.80171   4.80487
 Alpha virt. eigenvalues --    4.81439   4.82157   4.82576   4.83633   4.84161
 Alpha virt. eigenvalues --   23.38821  23.40351  23.54331  23.55512  23.69001
 Alpha virt. eigenvalues --   23.69912  23.77041  23.78247  23.80252  23.81085
 Alpha virt. eigenvalues --   23.81314  23.82368  23.85814  23.86846  23.88779
 Alpha virt. eigenvalues --   23.88900  23.89797  23.89856  23.91892  23.93013
 Alpha virt. eigenvalues --   23.97128  23.97944  23.98262  23.98997  24.08622
 Alpha virt. eigenvalues --   24.09496  24.09706  24.10097  24.10559  24.11157
 Alpha virt. eigenvalues --   24.11812  24.13002  24.13352  24.13941  24.14559
 Alpha virt. eigenvalues --   24.15261  24.15369  24.15403  24.16333  24.16367
 Alpha virt. eigenvalues --   24.20043  24.20088  24.21144  24.21191
          Condensed to atoms (all electrons):
 Mulliken charges:
               1
     1  C   -0.041121
     2  C   -0.060282
     3  C   -0.075386
     4  C   -0.051718
     5  C   -0.087421
     6  C   -0.090200
     7  C   -0.046757
     8  C   -0.033174
     9  C   -0.008420
    10  C   -0.057562
    11  H    0.085158
    12  H    0.076791
    13  H    0.077161
    14  H    0.084119
    15  H    0.096459
    16  H    0.096817
    17  C   -0.050081
    18  C   -0.033174
    19  C   -0.012367
    20  C   -0.057562
    21  H    0.075514
    22  H    0.075818
    23  C   -0.046757
    24  C   -0.041121
    25  C   -0.008420
    26  C   -0.060282
    27  H    0.076791
    28  H    0.077161
    29  C   -0.075386
    30  C   -0.087421
    31  C   -0.051718
    32  C   -0.090200
    33  H    0.085158
    34  H    0.096817
    35  H    0.096459
    36  H    0.084119
    37  C   -0.037196
    38  C   -0.094796
    39  C   -0.060423
    40  C   -0.052249
    41  C   -0.088484
    42  C   -0.108568
    43  C   -0.025616
    44  C   -0.027395
    45  C   -0.013870
    46  C   -0.096485
    47  H    0.079816
    48  H    0.071866
    49  H    0.100360
    50  H    0.101769
    51  H    0.089384
    52  H    0.092380
    53  C   -0.029664
    54  C   -0.027395
    55  C   -0.018383
    56  C   -0.096485
    57  H    0.070467
    58  H    0.098782
    59  C   -0.025616
    60  C   -0.037196
    61  C   -0.013870
    62  C   -0.094796
    63  H    0.071866
    64  H    0.100360
    65  C   -0.060423
    66  C   -0.088484
    67  C   -0.052249
    68  C   -0.108568
    69  H    0.079816
    70  H    0.092380
    71  H    0.089384
    72  H    0.101769
 Sum of Mulliken charges =   0.00000
 Mulliken charges with hydrogens summed into heavy atoms:
               1
     1  C   -0.041121
     2  C   -0.060282
     3  C    0.009772
     4  C    0.032401
     5  C    0.009397
     6  C    0.006258
     7  C    0.030034
     8  C   -0.033174
     9  C    0.068742
    10  C   -0.057562
    17  C    0.025433
    18  C   -0.033174
    19  C    0.063450
    20  C   -0.057562
    23  C    0.030034
    24  C   -0.041121
    25  C    0.068742
    26  C   -0.060282
    29  C    0.009772
    30  C    0.009397
    31  C    0.032401
    32  C    0.006258
    37  C   -0.037196
    38  C   -0.094796
    39  C    0.019393
    40  C    0.049520
    41  C    0.003896
    42  C   -0.019183
    43  C    0.046250
    44  C   -0.027395
    45  C    0.086490
    46  C   -0.096485
    53  C    0.040803
    54  C   -0.027395
    55  C    0.080400
    56  C   -0.096485
    59  C    0.046250
    60  C   -0.037196
    61  C    0.086490
    62  C   -0.094796
    65  C    0.019393
    66  C    0.003896
    67  C    0.049520
    68  C   -0.019183
         Mulliken charges condensed to fragments:
      1      0.017812
      2     -0.017812
 Electronic spatial extent (au):  <R**2>=          27802.7884
 Charge=              0.0000 electrons
 Dipole moment (field-independent basis, Debye):
    X=             -0.8308    Y=             -0.8847    Z=              0.0000  Tot=              1.2136
 Quadrupole moment (field-independent basis, Debye-Ang):
   XX=           -246.2569   YY=           -248.2852   ZZ=           -218.9479
   XY=              0.5025   XZ=              0.0000   YZ=              0.0000
 Traceless Quadrupole moment (field-independent basis, Debye-Ang):
   XX=             -8.4269   YY=            -10.4552   ZZ=             18.8821
   XY=              0.5025   XZ=              0.0000   YZ=              0.0000
 Octapole moment (field-independent basis, Debye-Ang**2):
  XXX=            -94.7855  YYY=            193.8406  ZZZ=              0.0000  XYY=             22.3512
  XXY=            -75.5890  XXZ=              0.0000  XZZ=            -14.9727  YZZ=            -21.7670
  YYZ=              0.0000  XYZ=              0.0000
 Hexadecapole moment (field-independent basis, Debye-Ang**3):
 XXXX=          -3213.7847 YYYY=         -12443.4292 ZZZZ=         -20982.2523 XXXY=          -2325.0227
 XXXZ=              0.0000 YYYX=          -2338.1918 YYYZ=              0.0000 ZZZX=              0.0000
 ZZZY=              0.0000 XXYY=          -2690.7233 XXZZ=          -4455.7797 YYZZ=          -5832.8128
 XXYZ=              0.0000 YYXZ=              0.0000 ZZXY=           -683.8002
 N-N= 4.505211003324D+03 E-N=-1.294078243590D+04  KE= 1.686677092131D+03
 Symmetry A'   KE= 9.134130762967D+02
 Symmetry A"   KE= 7.732640158344D+02
 No NMR shielding tensors so no spin-rotation constants.
 Leave Link  601 at Wed Sep 27 16:39:44 2023, MaxMem=  3221225472 cpu:              55.0 elap:               1.4
 (Enter /home/center/opt/aarch64/apps/gaussian16/c01/g16/l122.exe)
 CPIOFr:  IOpCl= 0 IRwI=-1 IRwCP=  731 ICalc= -1 LCPTot=     1419224 Len1MO=     3708034 IndFrg=     1419224
 CPIOFr:  IOpCl= 0 IRwI=-1 IRwCP=  731 ICalc=  0 LCPTot=     1419224 Len1MO=     3708034 IndFrg=     5127258
 Counterpoise: doing calculation for fragment   1 using the basis set of the full-system, NewBq=T
 Leave Link  122 at Wed Sep 27 16:39:47 2023, MaxMem=  3221225472 cpu:               9.3 elap:               0.5
 (Enter /home/center/opt/aarch64/apps/gaussian16/c01/g16/l301.exe)
 Basis read from rwf:  (5D, 7F)
 No pseudopotential information found on rwf file.
 There are   528 symmetry adapted cartesian basis functions of A'  symmetry.
 There are   476 symmetry adapted cartesian basis functions of A"  symmetry.
 There are   504 symmetry adapted basis functions of A'  symmetry.
 There are   456 symmetry adapted basis functions of A"  symmetry.
   960 basis functions,  1632 primitive gaussians,  1004 cartesian basis functions
    73 alpha electrons       73 beta electrons
       nuclear repulsion energy      1494.3575061534 Hartrees.
 IExCor=  402 DFT=T Ex+Corr=B3LYP ExCW=0 ScaHFX=  0.200000
 ScaDFX=  0.800000  0.720000  1.000000  0.810000 ScalE2=  1.000000  1.000000
 IRadAn=      5 IRanWt=     -1 IRanGd=            0 ICorTp=0 IEmpDi=131
 NAtoms=   72 NActive=   72 NUniq=   40 SFac= 3.24D+00 NAtFMM=   60 NAOKFM=T Big=F
 Integral buffers will be    131072 words long.
 Raffenetti 2 integral format.
 Two-electron integral symmetry is turned on.
 R6Disp:  Grimme-D3 Dispersion energy=       -0.0303938888 Hartrees.
 Nuclear repulsion after empirical dispersion term =     1494.3271122646 Hartrees.
 No density basis found on file    718.
 Leave Link  301 at Wed Sep 27 16:39:49 2023, MaxMem=  3221225472 cpu:               2.1 elap:               0.1
 (Enter /home/center/opt/aarch64/apps/gaussian16/c01/g16/l302.exe)
 NPDir=0 NMtPBC=     1 NCelOv=     1 NCel=       1 NClECP=     1 NCelD=      1
         NCelK=      1 NCelE2=     1 NClLst=     1 CellRange=     0.0.
 One-electron integrals computed using PRISM.
 One-electron integral symmetry used in STVInt
 NBasis=   960 RedAO= T EigKep=  3.94D-05  NBF=   504   456
 NBsUse=   960 1.00D-06 EigRej= -1.00D+00 NBFU=   504   456
 Precomputing XC quadrature grid using
 IXCGrd= 4 IRadAn=           5 IRanWt=          -1 IRanGd=           0 AccXCQ= 0.00D+00.
 Generated NRdTot=       0 NPtTot=           0 NUsed=           0 NTot=          32
 NSgBfM=   987   987   987   987   987 MxSgAt=    72 MxSgA2=    72.
 Leave Link  302 at Wed Sep 27 16:39:53 2023, MaxMem=  3221225472 cpu:              58.6 elap:               1.5
 (Enter /home/center/opt/aarch64/apps/gaussian16/c01/g16/l303.exe)
 DipDrv:  MaxL=1.
 Leave Link  303 at Wed Sep 27 16:39:56 2023, MaxMem=  3221225472 cpu:               7.6 elap:               0.3
 (Enter /home/center/opt/aarch64/apps/gaussian16/c01/g16/l401.exe)
 ExpMin= 1.03D-01 ExpMax= 4.56D+03 ExpMxC= 6.82D+02 IAcc=3 IRadAn=         5 AccDes= 0.00D+00
 Harris functional with IExCor=  402 and IRadAn=       5 diagonalized for initial guess.
 HarFok:  IExCor=  402 AccDes= 0.00D+00 IRadAn=         5 IDoV= 1 UseB2=F ITyADJ=14
 ICtDFT=  3500011 ScaDFX=  1.000000  1.000000  1.000000  1.000000
 FoFCou: FMM=F IPFlag=           0 FMFlag=      100000 FMFlg1=        2000
         NFxFlg=           0 DoJE=T BraDBF=F KetDBF=T FulRan=T
         wScrn=  0.000000 ICntrl=       500 IOpCl=  0 I1Cent=   200000004 NGrid=           0
         NMat0=    1 NMatS0=      1 NMatT0=    0 NMatD0=    1 NMtDS0=    0 NMtDT0=    0
 Petite list used in FoFCou.
 Harris En= -847.065162931175    
 JPrj=0 DoOrth=F DoCkMO=F.
 Initial guess orbital symmetries:
       Occupied  (A") (A') (A') (A") (A") (A') (A") (A') (A') (A")
                 (A") (A') (A') (A') (A") (A') (A") (A') (A") (A')
                 (A') (A") (A') (A") (A') (A") (A') (A') (A") (A')
                 (A") (A") (A') (A') (A") (A") (A') (A") (A') (A')
                 (A') (A") (A") (A") (A') (A') (A") (A') (A') (A")
                 (A') (A") (A") (A') (A') (A") (A') (A") (A') (A")
                 (A") (A') (A') (A") (A') (A") (A') (A") (A') (A')
                 (A") (A") (A')
       Virtual   (A') (A") (A") (A') (A') (A") (A') (A") (A') (A")
                 (A') (A') (A") (A') (A") (A') (A") (A') (A') (A")
                 (A") (A') (A') (A") (A") (A') (A') (A') (A') (A")
                 (A') (A") (A') (A") (A") (A') (A') (A") (A") (A')
                 (A') (A") (A") (A') (A") (A') (A') (A") (A") (A')
                 (A') (A") (A") (A') (A') (A") (A') (A') (A") (A')
                 (A") (A') (A") (A") (A') (A') (A') (A") (A') (A")
                 (A') (A") (A") (A') (A') (A") (A') (A') (A") (A')
                 (A') (A') (A") (A") (A') (A') (A") (A") (A') (A")
                 (A") (A") (A") (A') (A') (A") (A") (A') (A') (A')
                 (A') (A") (A') (A') (A") (A') (A') (A") (A') (A")
                 (A') (A") (A') (A") (A') (A") (A") (A") (A') (A")
                 (A") (A') (A') (A") (A') (A') (A") (A') (A') (A")
                 (A') (A") (A') (A') (A") (A') (A') (A') (A") (A")
                 (A') (A') (A") (A") (A') (A") (A') (A") (A") (A')
                 (A") (A') (A") (A") (A') (A") (A') (A') (A') (A')
                 (A") (A') (A") (A') (A") (A") (A') (A") (A') (A")
                 (A') (A") (A') (A") (A") (A') (A') (A") (A') (A')
                 (A") (A') (A") (A') (A") (A") (A') (A") (A") (A')
                 (A') (A') (A") (A') (A') (A') (A") (A") (A') (A')
                 (A") (A") (A") (A") (A') (A") (A') (A') (A") (A')
                 (A') (A') (A") (A") (A') (A") (A') (A") (A") (A")
                 (A') (A') (A') (A') (A") (A') (A') (A") (A') (A")
                 (A") (A') (A') (A") (A') (A") (A') (A") (A") (A")
                 (A') (A") (A') (A') (A") (A') (A') (A") (A") (A")
                 (A") (A') (A") (A') (A') (A') (A') (A') (A") (A")
                 (A') (A") (A") (A') (A') (A') (A") (A") (A') (A')
                 (A") (A") (A') (A") (A") (A') (A") (A') (A') (A")
                 (A") (A') (A') (A") (A') (A") (A') (A") (A') (A')
                 (A") (A') (A") (A') (A") (A') (A') (A') (A') (A")
                 (A") (A') (A") (A") (A') (A') (A") (A") (A") (A")
                 (A') (A") (A') (A') (A") (A') (A') (A') (A") (A')
                 (A") (A') (A') (A") (A") (A') (A") (A') (A") (A")
                 (A') (A') (A') (A') (A') (A") (A") (A') (A') (A")
                 (A') (A") (A") (A") (A') (A") (A') (A") (A') (A')
                 (A') (A") (A") (A') (A") (A') (A") (A') (A') (A')
                 (A') (A") (A') (A") (A") (A") (A') (A") (A') (A")
                 (A') (A") (A') (A") (A') (A") (A") (A') (A") (A")
                 (A') (A') (A') (A") (A") (A') (A') (A') (A") (A')
                 (A") (A") (A') (A") (A') (A') (A") (A') (A") (A")
                 (A') (A") (A') (A") (A') (A") (A") (A') (A') (A")
                 (A') (A") (A') (A') (A") (A') (A") (A') (A") (A")
                 (A') (A') (A") (A') (A") (A") (A') (A") (A') (A")
                 (A") (A') (A') (A') (A') (A") (A') (A") (A") (A')
                 (A") (A') (A') (A") (A') (A') (A") (A") (A") (A")
                 (A') (A') (A') (A') (A') (A") (A') (A") (A") (A")
                 (A') (A") (A') (A") (A') (A") (A') (A") (A') (A')
                 (A") (A') (A") (A") (A') (A") (A") (A') (A') (A")
                 (A') (A") (A") (A') (A") (A') (A') (A") (A') (A")
                 (A") (A') (A') (A") (A') (A") (A') (A') (A") (A")
                 (A') (A") (A') (A") (A') (A") (A') (A") (A') (A")
                 (A') (A') (A') (A") (A") (A") (A") (A") (A') (A')
                 (A') (A') (A") (A") (A') (A") (A') (A') (A") (A')
                 (A') (A") (A") (A') (A') (A') (A") (A') (A') (A")
                 (A") (A") (A') (A') (A') (A") (A') (A") (A") (A')
                 (A") (A") (A') (A') (A") (A') (A') (A") (A') (A")
                 (A") (A') (A') (A") (A") (A") (A') (A') (A") (A')
                 (A") (A') (A') (A") (A') (A') (A') (A") (A") (A")
                 (A') (A") (A') (A") (A') (A") (A') (A") (A") (A')
                 (A') (A") (A') (A') (A') (A') (A") (A") (A') (A")
                 (A") (A') (A") (A") (A') (A') (A") (A') (A') (A")
                 (A") (A') (A') (A") (A') (A") (A') (A") (A') (A")
                 (A') (A') (A") (A") (A') (A") (A") (A') (A') (A")
                 (A") (A') (A") (A") (A") (A') (A') (A') (A') (A")
                 (A') (A") (A') (A') (A") (A') (A") (A") (A') (A")
                 (A') (A") (A') (A") (A') (A') (A") (A") (A") (A')
                 (A") (A") (A') (A') (A") (A') (A") (A") (A') (A')
                 (A') (A") (A") (A') (A') (A") (A') (A") (A') (A')
                 (A") (A') (A") (A') (A") (A') (A") (A') (A') (A")
                 (A') (A") (A') (A') (A") (A") (A') (A") (A') (A')
[...]
                 (A') (A') (A") (A") (A') (A") (A') (A") (A') (A')
                 (A") (A") (A')
       Virtual   (A') (A") (A") (A') (A') (A") (A') (A') (A') (A")
                 (A") (A') (A") (A') (A") (A') (A") (A") (A') (A")
                 (A') (A') (A") (A') (A") (A') (A') (A') (A') (A")
                 (A") (A") (A") (A') (A') (A") (A') (A") (A') (A")
                 (A') (A') (A') (A") (A') (A") (A") (A') (A') (A")
                 (A") (A') (A') (A") (A') (A") (A") (A") (A') (A")
                 (A') (A') (A') (A') (A') (A") (A') (A') (A") (A")
                 (A") (A') (A') (A') (A") (A') (A") (A") (A") (A')
                 (A') (A") (A') (A") (A") (A') (A") (A') (A') (A')
                 (A') (A') (A") (A") (A") (A") (A') (A") (A') (A")
                 (A') (A') (A') (A") (A") (A') (A') (A") (A') (A")
                 (A') (A") (A") (A") (A') (A') (A") (A') (A') (A")
                 (A') (A") (A") (A') (A') (A") (A') (A") (A') (A")
                 (A") (A') (A') (A') (A') (A") (A") (A") (A') (A")
                 (A') (A") (A') (A") (A') (A') (A") (A") (A') (A")
                 (A') (A") (A') (A") (A') (A') (A") (A') (A") (A")
                 (A') (A") (A') (A') (A") (A") (A') (A") (A') (A")
                 (A') (A') (A") (A') (A') (A") (A") (A') (A') (A')
                 (A") (A') (A") (A") (A") (A") (A') (A") (A') (A')
                 (A") (A') (A") (A') (A') (A') (A") (A') (A") (A')
                 (A") (A") (A') (A') (A") (A") (A') (A') (A") (A')
                 (A') (A') (A') (A") (A") (A") (A") (A') (A') (A")
                 (A') (A") (A") (A') (A") (A') (A") (A') (A") (A')
                 (A") (A') (A') (A") (A') (A") (A") (A') (A') (A")
                 (A") (A') (A') (A") (A") (A') (A") (A") (A") (A')
                 (A') (A") (A') (A') (A") (A') (A') (A") (A') (A")
                 (A") (A') (A") (A') (A') (A") (A") (A") (A') (A')
                 (A") (A') (A') (A") (A") (A") (A') (A") (A') (A')
                 (A") (A') (A") (A') (A") (A') (A') (A') (A") (A')
                 (A") (A") (A') (A') (A") (A") (A') (A") (A') (A")
                 (A') (A') (A") (A") (A') (A') (A") (A') (A') (A')
                 (A") (A") (A') (A") (A') (A") (A') (A") (A') (A')
                 (A') (A") (A") (A") (A') (A") (A') (A') (A') (A")
                 (A") (A') (A") (A') (A') (A") (A') (A") (A") (A')
                 (A') (A") (A') (A") (A") (A') (A') (A") (A') (A")
                 (A') (A") (A') (A") (A') (A") (A") (A') (A') (A")
                 (A') (A") (A') (A') (A") (A") (A') (A") (A') (A')
                 (A") (A') (A") (A') (A') (A") (A') (A") (A') (A")
                 (A") (A') (A") (A') (A") (A') (A") (A') (A') (A")
                 (A") (A') (A") (A') (A') (A") (A") (A') (A') (A")
                 (A') (A") (A') (A") (A') (A') (A")
 The electronic state is 1-A'.
 Alpha  occ. eigenvalues --  -10.18931 -10.18930 -10.18896 -10.18895 -10.18848
 Alpha  occ. eigenvalues --  -10.18848 -10.18813 -10.18813 -10.17956 -10.17955
 Alpha  occ. eigenvalues --  -10.17920 -10.17920 -10.17919 -10.17919 -10.17875
 Alpha  occ. eigenvalues --  -10.17875 -10.17863 -10.17863 -10.17808 -10.17808
 Alpha  occ. eigenvalues --  -10.17781 -10.17781  -0.89340  -0.87865  -0.85549
 Alpha  occ. eigenvalues --   -0.82415  -0.79820  -0.78521  -0.78314  -0.75991
 Alpha  occ. eigenvalues --   -0.74255  -0.72901  -0.69196  -0.67344  -0.62728
 Alpha  occ. eigenvalues --   -0.62370  -0.61108  -0.59964  -0.59301  -0.57689
 Alpha  occ. eigenvalues --   -0.52709  -0.52573  -0.52293  -0.49654  -0.48513
 Alpha  occ. eigenvalues --   -0.47160  -0.46110  -0.45590  -0.45476  -0.43928
 Alpha  occ. eigenvalues --   -0.43182  -0.42578  -0.41808  -0.41572  -0.41386
 Alpha  occ. eigenvalues --   -0.40692  -0.40405  -0.39579  -0.38193  -0.36732
 Alpha  occ. eigenvalues --   -0.36341  -0.35550  -0.34094  -0.33809  -0.33058
 Alpha  occ. eigenvalues --   -0.32930  -0.31612  -0.29665  -0.28406  -0.26623
 Alpha  occ. eigenvalues --   -0.24364  -0.22582  -0.17855
 Alpha virt. eigenvalues --   -0.09755  -0.04464  -0.02747  -0.00147   0.02073
 Alpha virt. eigenvalues --    0.02370   0.03189   0.04746   0.04859   0.04871
 Alpha virt. eigenvalues --    0.06161   0.06575   0.07968   0.08162   0.08303
 Alpha virt. eigenvalues --    0.09607   0.10049   0.11524   0.11533   0.13796
 Alpha virt. eigenvalues --    0.14111   0.14670   0.18092   0.18194   0.18832
 Alpha virt. eigenvalues --    0.19391   0.22815   0.23002   0.24379   0.24942
 Alpha virt. eigenvalues --    0.25581   0.27528   0.27575   0.28012   0.28228
 Alpha virt. eigenvalues --    0.28947   0.29389   0.30158   0.30759   0.31175
 Alpha virt. eigenvalues --    0.32897   0.34528   0.36420   0.36484   0.37134
 Alpha virt. eigenvalues --    0.37503   0.37629   0.37651   0.38116   0.38643
 Alpha virt. eigenvalues --    0.39094   0.39439   0.39739   0.40236   0.40435
 Alpha virt. eigenvalues --    0.41918   0.41926   0.41940   0.42289   0.42318
 Alpha virt. eigenvalues --    0.42643   0.43748   0.44233   0.44835   0.45295
 Alpha virt. eigenvalues --    0.45683   0.45924   0.45953   0.46379   0.47165
 Alpha virt. eigenvalues --    0.47805   0.47809   0.47978   0.48073   0.48231
 Alpha virt. eigenvalues --    0.48568   0.49414   0.49572   0.51377   0.51846
 Alpha virt. eigenvalues --    0.52370   0.53118   0.53671   0.55998   0.57923
 Alpha virt. eigenvalues --    0.57955   0.59048   0.59201   0.60433   0.60585
 Alpha virt. eigenvalues --    0.60693   0.61101   0.61690   0.62105   0.62173
 Alpha virt. eigenvalues --    0.63432   0.63481   0.64458   0.64535   0.65533
 Alpha virt. eigenvalues --    0.66693   0.66910   0.67680   0.67724   0.70658
 Alpha virt. eigenvalues --    0.71305   0.71405   0.71494   0.72803   0.73989
 Alpha virt. eigenvalues --    0.75405   0.75894   0.76289   0.77801   0.77809
 Alpha virt. eigenvalues --    0.78943   0.79160   0.79723   0.81162   0.81509
 Alpha virt. eigenvalues --    0.82881   0.83001   0.84383   0.84585   0.84713
 Alpha virt. eigenvalues --    0.88087   0.89711   0.89765   0.91536   0.92083
 Alpha virt. eigenvalues --    0.92578   0.93749   0.95806   0.96107   0.96442
 Alpha virt. eigenvalues --    0.96590   0.96905   0.98547   1.00356   1.01118
 Alpha virt. eigenvalues --    1.02686   1.03027   1.03354   1.04405   1.05244
 Alpha virt. eigenvalues --    1.05439   1.05525   1.05950   1.07395   1.07547
 Alpha virt. eigenvalues --    1.07686   1.08438   1.10005   1.10036   1.12070
 Alpha virt. eigenvalues --    1.13223   1.13544   1.13650   1.14526   1.15341
 Alpha virt. eigenvalues --    1.17432   1.18332   1.19657   1.20432   1.23014
 Alpha virt. eigenvalues --    1.23618   1.27884   1.28234   1.30579   1.32076
 Alpha virt. eigenvalues --    1.32743   1.34942   1.37641   1.39236   1.39896
 Alpha virt. eigenvalues --    1.39942   1.40725   1.42751   1.43476   1.43554
 Alpha virt. eigenvalues --    1.45057   1.46086   1.47119   1.47538   1.48841
 Alpha virt. eigenvalues --    1.49280   1.49417   1.50258   1.50674   1.52268
 Alpha virt. eigenvalues --    1.52650   1.53402   1.54331   1.54372   1.54781
 Alpha virt. eigenvalues --    1.54807   1.57107   1.57715   1.58569   1.59882
 Alpha virt. eigenvalues --    1.60106   1.62692   1.63242   1.64856   1.66641
 Alpha virt. eigenvalues --    1.69292   1.69605   1.69709   1.70649   1.71804
 Alpha virt. eigenvalues --    1.72459   1.72619   1.73075   1.73096   1.73680
 Alpha virt. eigenvalues --    1.77494   1.78519   1.79157   1.79419   1.80511
 Alpha virt. eigenvalues --    1.81616   1.81887   1.82058   1.83581   1.84039
 Alpha virt. eigenvalues --    1.85487   1.87392   1.87456   1.87577   1.87728
 Alpha virt. eigenvalues --    1.88131   1.88613   1.90743   1.91387   1.92190
 Alpha virt. eigenvalues --    1.92193   1.92572   1.92670   1.93517   1.93938
 Alpha virt. eigenvalues --    1.94544   1.95483   1.97262   1.99429   2.00088
 Alpha virt. eigenvalues --    2.00602   2.01362   2.03019   2.05757   2.08293
 Alpha virt. eigenvalues --    2.09111   2.09256   2.09792   2.12192   2.14098
 Alpha virt. eigenvalues --    2.15528   2.15584   2.17200   2.19751   2.20833
 Alpha virt. eigenvalues --    2.21576   2.22525   2.23381   2.24503   2.26441
 Alpha virt. eigenvalues --    2.26972   2.27242   2.27719   2.28046   2.29391
 Alpha virt. eigenvalues --    2.33301   2.35725   2.39155   2.39384   2.40817
 Alpha virt. eigenvalues --    2.42649   2.43076   2.45776   2.45994   2.46870
 Alpha virt. eigenvalues --    2.51623   2.51954   2.53354   2.53485   2.55138
 Alpha virt. eigenvalues --    2.56159   2.58701   2.58838   2.59764   2.59776
 Alpha virt. eigenvalues --    2.60682   2.61147   2.61719   2.62222   2.63349
 Alpha virt. eigenvalues --    2.63999   2.64478   2.66054   2.66794   2.67121
 Alpha virt. eigenvalues --    2.67374   2.68356   2.68872   2.68876   2.69372
 Alpha virt. eigenvalues --    2.69557   2.69907   2.70083   2.70281   2.73482
 Alpha virt. eigenvalues --    2.74771   2.74836   2.76066   2.77101   2.77577
 Alpha virt. eigenvalues --    2.78232   2.78455   2.78850   2.80822   2.82359
 Alpha virt. eigenvalues --    2.85535   2.85993   2.86737   2.87294   2.90966
 Alpha virt. eigenvalues --    2.91783   2.92195   2.93676   2.95232   2.95887
 Alpha virt. eigenvalues --    2.99270   2.99858   3.03165   3.05604   3.06852
 Alpha virt. eigenvalues --    3.07371   3.15988   3.16029   3.16647   3.19843
 Alpha virt. eigenvalues --    3.20017   3.23601   3.29134   3.29680   3.31610
 Alpha virt. eigenvalues --    3.35095   3.35458   3.35677   3.35858   3.38023
 Alpha virt. eigenvalues --    3.39887   3.41413   3.44960   3.45362   3.47993
 Alpha virt. eigenvalues --    3.48278   3.50401   3.53073   3.57439   3.58649
 Alpha virt. eigenvalues --    3.61466   3.62620   3.63208   3.63698   3.65910
 Alpha virt. eigenvalues --    3.67534   3.67678   4.00384   4.00442   4.01859
 Alpha virt. eigenvalues --    4.02182   4.16133   4.16678   4.17360   4.21240
 Alpha virt. eigenvalues --    4.22396   4.22517   4.25488   4.38492   4.62290
 Alpha virt. eigenvalues --    4.79179   4.79740   4.80562   4.82562   4.83014
 Alpha virt. eigenvalues --   23.39176  23.54541  23.69085  23.77378  23.80419
 Alpha virt. eigenvalues --   23.81537  23.86099  23.89067  23.89154  23.92210
 Alpha virt. eigenvalues --   23.97563  23.98365  24.09049  24.09932  24.10529
 Alpha virt. eigenvalues --   24.12220  24.13779  24.14375  24.15775  24.15810
 Alpha virt. eigenvalues --   24.20452  24.20497
          Condensed to atoms (all electrons):
 Mulliken charges:
               1
     1  C    0.000000
     2  C    0.000000
     3  C    0.000000
     4  C    0.000000
     5  C    0.000000
     6  C    0.000000
     7  C    0.000000
     8  C    0.000000
     9  C    0.000000
    10  C    0.000000
    11  H    0.000000
    12  H    0.000000
    13  H    0.000000
    14  H    0.000000
    15  H    0.000000
    16  H    0.000000
    17  C    0.000000
    18  C    0.000000
    19  C    0.000000
    20  C    0.000000
    21  H    0.000000
    22  H    0.000000
    23  C    0.000000
    24  C    0.000000
    25  C    0.000000
    26  C    0.000000
    27  H    0.000000
    28  H    0.000000
    29  C    0.000000
    30  C    0.000000
    31  C    0.000000
    32  C    0.000000
    33  H    0.000000
    34  H    0.000000
    35  H    0.000000
    36  H    0.000000
    37  C   -0.059168
    38  C   -0.059168
    39  C   -0.055977
    40  C   -0.055977
    41  C   -0.092198
    42  C   -0.092198
    43  C   -0.016525
    44  C   -0.054498
    45  C   -0.016525
    46  C   -0.054498
    47  H    0.082122
    48  H    0.074853
    49  H    0.074853
    50  H    0.082122
    51  H    0.094847
    52  H    0.094847
    53  C   -0.020341
    54  C   -0.054498
    55  C   -0.020341
    56  C   -0.054498
    57  H    0.073428
    58  H    0.073428
    59  C   -0.016525
    60  C   -0.059168
    61  C   -0.016525
    62  C   -0.059168
    63  H    0.074853
    64  H    0.074853
    65  C   -0.055977
    66  C   -0.092198
    67  C   -0.055977
    68  C   -0.092198
    69  H    0.082122
    70  H    0.094847
    71  H    0.094847
    72  H    0.082122
 Sum of Mulliken charges =   0.00000
 Mulliken charges with hydrogens summed into heavy atoms:
               1
     1  C    0.000000
     2  C    0.000000
     3  C    0.000000
     4  C    0.000000
     5  C    0.000000
     6  C    0.000000
     7  C    0.000000
     8  C    0.000000
     9  C    0.000000
    10  C    0.000000
    17  C    0.000000
    18  C    0.000000
    19  C    0.000000
    20  C    0.000000
    23  C    0.000000
    24  C    0.000000
    25  C    0.000000
    26  C    0.000000
    29  C    0.000000
    30  C    0.000000
    31  C    0.000000
    32  C    0.000000
    37  C   -0.059168
    38  C   -0.059168
    39  C    0.026144
    40  C    0.026144
    41  C    0.002649
    42  C    0.002649
    43  C    0.058328
    44  C   -0.054498
    45  C    0.058328
    46  C   -0.054498
    53  C    0.053087
    54  C   -0.054498
    55  C    0.053087
    56  C   -0.054498
    59  C    0.058328
    60  C   -0.059168
    61  C    0.058328
    62  C   -0.059168
    65  C    0.026144
    66  C    0.002649
    67  C    0.026144
    68  C    0.002649
         Mulliken charges condensed to fragments:
      1      0.000000
      2      0.000000
 Electronic spatial extent (au):  <R**2>=          11937.6486
 Charge=              0.0000 electrons
 Dipole moment (field-independent basis, Debye):
    X=              0.0000    Y=              0.0000    Z=              0.0000  Tot=              0.0000
 Quadrupole moment (field-independent basis, Debye-Ang):
   XX=           -136.3921   YY=           -110.7480   ZZ=           -109.0115
   XY=              0.0000   XZ=              0.0000   YZ=              0.0000
 Traceless Quadrupole moment (field-independent basis, Debye-Ang):
   XX=            -17.6749   YY=              7.9692   ZZ=              9.7057
   XY=              0.0000   XZ=              0.0000   YZ=              0.0000
 Octapole moment (field-independent basis, Debye-Ang**2):
  XXX=            650.9953  YYY=            528.5971  ZZZ=              0.0000  XYY=            176.1990
  XXY=            216.9984  XXZ=              0.0000  XZZ=            173.4362  YZZ=            173.4362
  YYZ=              0.0000  XYZ=              0.0000
 Hexadecapole moment (field-independent basis, Debye-Ang**3):
 XXXX=          -2225.8582 YYYY=          -2798.7026 ZZZZ=         -10461.4324 XXXY=          -1035.7272
 XXXZ=              0.0000 YYYX=           -840.9928 YYYZ=              0.0000 ZZZX=              0.0000
 ZZZY=              0.0000 XXYY=           -881.9887 XXZZ=          -2483.8673 YYZZ=          -2245.1497
 XXYZ=              0.0000 YYXZ=              0.0000 ZZXY=           -275.9353
 N-N= 1.494327112162D+03 E-N=-4.953709175877D+03  KE= 8.433374905091D+02
 Symmetry A'   KE= 4.567052305451D+02
 Symmetry A"   KE= 3.866322599639D+02
 No NMR shielding tensors so no spin-rotation constants.
 Leave Link  601 at Wed Sep 27 16:57:32 2023, MaxMem=  3221225472 cpu:              14.7 elap:               0.5
 (Enter /home/center/opt/aarch64/apps/gaussian16/c01/g16/l122.exe)
 CPIOFr:  IOpCl= 0 IRwI=-1 IRwCP=  731 ICalc=  4 LCPTot=     1419224 Len1MO=     3708034 IndFrg=    19959394
 Restoring MOs from calculation   1 to rwf.
 CPIOFr:  IOpCl= 0 IRwI=-2 IRwCP=  731 ICalc=  0 LCPTot=     1419224 Len1MO=     3708034 IndFrg=     5127258
 Counterpoise corrected energy =   -1694.057239846280
                   BSSE energy =       0.004665616400
              sum of fragments =   -1694.039683044258
           complexation energy =     -13.94 kcal/mole (raw)
           complexation energy =     -11.02 kcal/mole (corrected)
 Leave Link  122 at Wed Sep 27 16:57:34 2023, MaxMem=  3221225472 cpu:               8.3 elap:               0.4
 (Enter /home/center/opt/aarch64/apps/gaussian16/c01/g16/l9999.exe)

 Test job not archived.
 1\1\GINC-FX0478\SP\RB3LYP\6-311G(d,p)\C44H28\Z40145W\27-Sep-2023\0\\#P
  TEST b3lyp/6-311G** EmpiricalDispersion=GD3 counterpoise=2\\pentacene
 _A1=0_A2=0_A3=45_p2\\0,1\C,0,-0.5039478476,0.5239478476,-3.6612755801\
 C,0,0.5239480325,-0.5039480325,-3.6612755629\C,0,-0.9861248463,1.00612
 48463,-4.9235927708\C,0,1.0061250889,-0.9861250889,-4.9235926697\C,0,-
 0.4963213507,0.5163213507,-6.096356521\C,0,0.5163216812,-0.4963216812,
 -6.0963564796\C,0,-0.9844684311,1.0044684311,-2.4533174875\C,0,-0.5044
 88426,0.524488426,-1.2140288145\C,0,1.0044685359,-0.9844685359,-2.4533
 173917\C,0,0.5244885437,-0.5044885437,-1.2140288362\H,0,-1.7533559667,
 1.7733559667,-4.9232600459\H,0,-1.7521866813,1.7721866813,-2.453928581
 5\H,0,1.7721859268,-1.7521859268,-2.4539284818\H,0,1.7733558421,-1.753
 3558421,-4.9232597785\H,0,0.8905568758,-0.8705568758,-7.0425276922\H,0
 ,-0.8705565046,0.8905565046,-7.042527775\C,0,-0.9848184961,1.004818496
 1,0.0099998782\C,0,-0.5044883957,0.5244883957,1.2340295553\C,0,1.00481
 85643,-0.9848185643,0.0099998696\C,0,0.5244885146,-0.5044885146,1.2340
 295261\H,0,-1.7524699697,1.7724699697,0.0099999205\H,0,1.772468921,-1.
 752468921,0.0099999641\C,0,-0.9844683048,1.0044683048,2.4733171385\C,0
 ,-0.5039477114,0.5239477114,3.681276331\C,0,1.0044684211,-0.9844684211
 ,2.4733170835\C,0,0.5239479079,-0.5039479079,3.6812763217\H,0,-1.75218
 65527,1.7721865527,2.4739285326\H,0,1.7721858092,-1.7521858092,2.47392
 83796\C,0,-0.9861245177,1.0061245177,4.9435920588\C,0,-0.4963209372,0.
 5163209372,6.116356633\C,0,1.0061247659,-0.9861247659,4.9435919377\C,0
 ,0.5163212637,-0.4963212637,6.1163566075\H,0,-1.7533556504,1.773355650
 4,4.9432601504\H,0,-0.8705567426,0.8905567426,7.0625274368\H,0,0.89055
 70967,-0.8705570967,7.0625272142\H,0,1.7733555414,-1.7533555414,4.9432
 599297\C,0,3.9960521524,0.5239478476,-3.6612755801\C,0,5.0239480325,-0
 .5039480325,-3.6612755629\C,0,3.5138751537,1.0061248463,-4.9235927708\
 C,0,5.5061250889,-0.9861250889,-4.9235926697\C,0,4.0036786493,0.516321
 3507,-6.096356521\C,0,5.0163216812,-0.4963216812,-6.0963564796\C,0,3.5
 155315689,1.0044684311,-2.4533174875\C,0,3.995511574,0.524488426,-1.21
 40288145\C,0,5.5044685359,-0.9844685359,-2.4533173917\C,0,5.0244885437
 ,-0.5044885437,-1.2140288362\H,0,2.7466440333,1.7733559667,-4.92326004
 59\H,0,2.7478133187,1.7721866813,-2.4539285815\H,0,6.2721859268,-1.752
 1859268,-2.4539284818\H,0,6.2733558421,-1.7533558421,-4.9232597785\H,0
 ,5.3905568758,-0.8705568758,-7.0425276922\H,0,3.6294434954,0.890556504
 6,-7.042527775\C,0,3.5151815039,1.0048184961,0.0099998782\C,0,3.995511
 6043,0.5244883957,1.2340295553\C,0,5.5048185643,-0.9848185643,0.009999
 8696\C,0,5.0244885146,-0.5044885146,1.2340295261\H,0,2.7475300303,1.77
 24699697,0.0099999205\H,0,6.272468921,-1.752468921,0.0099999641\C,0,3.
 5155316952,1.0044683048,2.4733171385\C,0,3.9960522886,0.5239477114,3.6
 81276331\C,0,5.5044684211,-0.9844684211,2.4733170835\C,0,5.0239479079,
 -0.5039479079,3.6812763217\H,0,2.7478134473,1.7721865527,2.4739285326\
 H,0,6.2721858092,-1.7521858092,2.4739283796\C,0,3.5138754823,1.0061245
 177,4.9435920588\C,0,4.0036790628,0.5163209372,6.116356633\C,0,5.50612
 47659,-0.9861247659,4.9435919377\C,0,5.0163212637,-0.4963212637,6.1163
 566075\H,0,2.7466443496,1.7733556504,4.9432601504\H,0,3.6294432574,0.8
 905567426,7.0625274368\H,0,5.3905570967,-0.8705570967,7.0625272142\H,0
 ,6.2733555414,-1.7533555414,4.9432599297\\Version=Fujitsu-Arm-G16RevC.
 01\State=1-A'\HF=-847.0198415\RMSD=3.181e-09\Dipole=-0.0000011,0.00000
 11,0.\Quadrupole=-9.2856804,-5.3126036,14.598284,-17.3543489,0.,0.\PG=
 CS [SG(C4H4),X(C40H24)]\\@


 YOU CANNOT THROW TO THE GROUND THE LETTERS OF
 THE GREEK ALPHABET AND PICK UP THE ILIAD.
        - RUFUS CHOATE, 1799-1859
 Job cpu time:       0 days  3 hours 53 minutes 11.5 seconds.
 Elapsed time:       0 days  0 hours  6 minutes  3.6 seconds.
 File lengths (MBytes):  RWF=    718 Int=      0 D2E=      0 Chk=    208 Scr=      1
 Normal termination of Gaussian 16 at Wed Sep 27 16:57:40 2023.
