 Entering Gaussian System, Link 0=g16
 Initial command:
 /home/center/opt/aarch64/apps/gaussian16/c01/g16/l1.exe "/data/tmp/Gtmp/1006978/Gau-50.inp" -scrdir="/data/tmp/Gtmp/1006978/"
 Entering Link 1 = /home/center/opt/aarch64/apps/gaussian16/c01/g16/l1.exe PID=        51.
  
 Copyright (c) 1988-2019, Gaussian, Inc.  All Rights Reserved.
  
 This is part of the Gaussian(R) 16 program.  It is based on
 the Gaussian(R) 09 system (copyright 2009, Gaussian, Inc.),
 the Gaussian(R) 03 system (copyright 2003, Gaussian, Inc.),
 the Gaussian(R) 98 system (copyright 1998, Gaussian, Inc.),
 the Gaussian(R) 94 system (copyright 1995, Gaussian, Inc.),
 the Gaussian 92(TM) system (copyright 1992, Gaussian, Inc.),
 the Gaussian 90(TM) system (copyright 1990, Gaussian, Inc.),
 the Gaussian 88(TM) system (copyright 1988, Gaussian, Inc.),
 the Gaussian 86(TM) system (copyright 1986, Carnegie Mellon
 University), and the Gaussian 82(TM) system (copyright 1983,
 Carnegie Mellon University). Gaussian is a federally registered
 trademark of Gaussian, Inc.
  
 This software contains proprietary and confidential information,
 including trade secrets, belonging to Gaussian, Inc.
  
 This software is provided under written license and may be
 used, copied, transmitted, or stored only in accord with that
 written license.
  
 The following legend is applicable only to US Government
 contracts under FAR:
  
                    RESTRICTED RIGHTS LEGEND
  
 Use, reproduction and disclosure by the US Government is
 subject to restrictions as set forth in subparagraphs (a)
 and (c) of the Commercial Computer Software - Restricted
 Rights clause in FAR 52.227-19.
  
 Gaussian, Inc.
 340 Quinnipiac St., Bldg. 40, Wallingford CT 06492
  
  
 ---------------------------------------------------------------
 Warning -- This program may not be used in any manner that
 competes with the business of Gaussian, Inc. or will provide
 assistance to any competitor of Gaussian, Inc.  The licensee
 of this program is prohibited from giving any competitor of
 Gaussian, Inc. access to this program.  By using this program,
 the user acknowledges that Gaussian, Inc. is engaged in the
 business of creating and licensing software in the field of
 computational chemistry and represents and warrants to the
 licensee that it is not a competitor of Gaussian, Inc. and that
 it will not use this program in any manner prohibited above.
 ---------------------------------------------------------------
  

 Cite this work as:
 Gaussian 16, Revision C.01,
 M. J. Frisch, G. W. Trucks, H. B. Schlegel, G. E. Scuseria, 
 M. A. Robb, J. R. Cheeseman, G. Scalmani, V. Barone, 
 G. A. Petersson, H. Nakatsuji, X. Li, M. Caricato, A. V. Marenich, 
 J. Bloino, B. G. Janesko, R. Gomperts, B. Mennucci, H. P. Hratchian, 
 J. V. Ortiz, A. F. Izmaylov, J. L. Sonnenberg, D. Williams-Young, 
 F. Ding, F. Lipparini, F. Egidi, J. Goings, B. Peng, A. Petrone, 
 T. Henderson, D. Ranasinghe, V. G. Zakrzewski, J. Gao, N. Rega, 
 G. Zheng, W. Liang, M. Hada, M. Ehara, K. Toyota, R. Fukuda, 
 J. Hasegawa, M. Ishida, T. Nakajima, Y. Honda, O. Kitao, H. Nakai, 
 T. Vreven, K. Throssell, J. A. Montgomery, Jr., J. E. Peralta, 
 F. Ogliaro, M. J. Bearpark, J. J. Heyd, E. N. Brothers, K. N. Kudin, 
 V. N. Staroverov, T. A. Keith, R. Kobayashi, J. Normand, 
 K. Raghavachari, A. P. Rendell, J. C. Burant, S. S. Iyengar, 
 J. Tomasi, M. Cossi, J. M. Millam, M. Klene, C. Adamo, R. Cammi, 
 J. W. Ochterski, R. L. Martin, K. Morokuma, O. Farkas, 
 J. B. Foresman, and D. J. Fox, Gaussian, Inc., Wallingford CT, 2019.
 
 ************************************************
 Gaussian 16:  Fujitsu-Arm-G16RevC.01  3-Jul-2019
                   27-Sep-2023 
 ************************************************
 %mem=24GB
 %nproc=42
 Will use up to   42 processors via shared memory.
 -------------------------------------------------------------
 #P TEST b3lyp/6-311G** EmpiricalDispersion=GD3 counterpoise=2
 -------------------------------------------------------------
 1/38=1,62=2,172=1/1;
 2/12=2,17=6,18=5,40=1/2;
 1/38=1,53=2,62=2,63=1/22;
 3/5=4,6=6,7=101,11=2,25=1,30=1,74=-5,124=31/1,2,3;
 4//1;
 5/5=2,38=5/2;
 6/7=2,8=2,9=2,10=2,28=1/1;
 1/53=2,62=2,63=1/22;
 3/5=7,6=11,7=101,11=2,25=1,30=1,74=-5,82=7,124=31/1,2,3;
 4//1;
 5/5=2,38=5/2;
 6/7=2,8=2,9=2,10=2,28=1/1;
 1/53=2,62=2,63=1/22(-4);
 99/5=1,9=1/99;
 Leave Link    1 at Wed Sep 27 16:57:21 2023, MaxMem=  3221225472 cpu:               5.7 elap:               0.2
 (Enter /home/center/opt/aarch64/apps/gaussian16/c01/g16/l101.exe)
 ----------------------------
 pentacene_A1=0_A2=0_A3=45_t1
 ----------------------------
 Symbolic Z-matrix:
 Charge =  0 Multiplicity = 1 in supermolecule
 Charge =  0 Multiplicity = 1 in fragment      1.
 Charge =  0 Multiplicity = 1 in fragment      2.
 C(Fragment=1)        -0.50395   0.52395  -3.66128 
 C(Fragment=1)         0.52395  -0.50395  -3.66128 
 C(Fragment=1)        -0.98612   1.00612  -4.92359 
 C(Fragment=1)         1.00613  -0.98613  -4.92359 
 C(Fragment=1)        -0.49632   0.51632  -6.09636 
 C(Fragment=1)         0.51632  -0.49632  -6.09636 
 C(Fragment=1)        -0.98447   1.00447  -2.45332 
 C(Fragment=1)        -0.50449   0.52449  -1.21403 
 C(Fragment=1)         1.00447  -0.98447  -2.45332 
 C(Fragment=1)         0.52449  -0.50449  -1.21403 
 H(Fragment=1)        -1.75336   1.77336  -4.92326 
 H(Fragment=1)        -1.75219   1.77219  -2.45393 
 H(Fragment=1)         1.77219  -1.75219  -2.45393 
 H(Fragment=1)         1.77336  -1.75336  -4.92326 
 H(Fragment=1)         0.89056  -0.87056  -7.04253 
 H(Fragment=1)        -0.87056   0.89056  -7.04253 
 C(Fragment=1)        -0.98482   1.00482   0.01 
 C(Fragment=1)        -0.50449   0.52449   1.23403 
 C(Fragment=1)         1.00482  -0.98482   0.01 
 C(Fragment=1)         0.52449  -0.50449   1.23403 
 H(Fragment=1)        -1.75247   1.77247   0.01 
 H(Fragment=1)         1.77247  -1.75247   0.01 
 C(Fragment=1)        -0.98447   1.00447   2.47332 
 C(Fragment=1)        -0.50395   0.52395   3.68128 
 C(Fragment=1)         1.00447  -0.98447   2.47332 
 C(Fragment=1)         0.52395  -0.50395   3.68128 
 H(Fragment=1)        -1.75219   1.77219   2.47393 
 H(Fragment=1)         1.77219  -1.75219   2.47393 
 C(Fragment=1)        -0.98612   1.00612   4.94359 
 C(Fragment=1)        -0.49632   0.51632   6.11636 
 C(Fragment=1)         1.00612  -0.98612   4.94359 
 C(Fragment=1)         0.51632  -0.49632   6.11636 
 H(Fragment=1)        -1.75336   1.77336   4.94326 
 H(Fragment=1)        -0.87056   0.89056   7.06253 
 H(Fragment=1)         0.89056  -0.87056   7.06253 
 H(Fragment=1)         1.77336  -1.75336   4.94326 
 C(Fragment=2)         4.77395   2.77395  -3.66128 
 C(Fragment=2)         3.74605   1.74605  -3.66128 
 C(Fragment=2)         5.25612   3.25612  -4.92359 
 C(Fragment=2)         3.26387   1.26387  -4.92359 
 C(Fragment=2)         4.76632   2.76632  -6.09636 
 C(Fragment=2)         3.75368   1.75368  -6.09636 
 C(Fragment=2)         5.25447   3.25447  -2.45332 
 C(Fragment=2)         4.77449   2.77449  -1.21403 
 C(Fragment=2)         3.26553   1.26553  -2.45332 
 C(Fragment=2)         3.74551   1.74551  -1.21403 
 H(Fragment=2)         6.02336   4.02336  -4.92326 
 H(Fragment=2)         6.02219   4.02219  -2.45393 
 H(Fragment=2)         2.49781   0.49781  -2.45393 
 H(Fragment=2)         2.49664   0.49664  -4.92326 
 H(Fragment=2)         3.37944   1.37944  -7.04253 
 H(Fragment=2)         5.14056   3.14056  -7.04253 
 C(Fragment=2)         5.25482   3.25482   0.01 
 C(Fragment=2)         4.77449   2.77449   1.23403 
 C(Fragment=2)         3.26518   1.26518   0.01 
 C(Fragment=2)         3.74551   1.74551   1.23403 
 H(Fragment=2)         6.02247   4.02247   0.01 
 H(Fragment=2)         2.49753   0.49753   0.01 
 C(Fragment=2)         5.25447   3.25447   2.47332 
 C(Fragment=2)         4.77395   2.77395   3.68128 
 C(Fragment=2)         3.26553   1.26553   2.47332 
 C(Fragment=2)         3.74605   1.74605   3.68128 
 H(Fragment=2)         6.02219   4.02219   2.47393 
 H(Fragment=2)         2.49781   0.49781   2.47393 
 C(Fragment=2)         5.25612   3.25612   4.94359 
 C(Fragment=2)         4.76632   2.76632   6.11636 
 C(Fragment=2)         3.26388   1.26388   4.94359 
 C(Fragment=2)         3.75368   1.75368   6.11636 
 H(Fragment=2)         6.02336   4.02336   4.94326 
 H(Fragment=2)         5.14056   3.14056   7.06253 
 H(Fragment=2)         3.37944   1.37944   7.06253 
 H(Fragment=2)         2.49664   0.49664   4.94326 
 
 ITRead=  0  0  0  0  0  0  0  0  0  0  0  0  0  0  0  0  0  0  0  0
 ITRead=  0  0  0  0  0  0  0  0  0  0  0  0  0  0  0  0  0  0  0  0
 ITRead=  0  0  0  0  0  0  0  0  0  0  0  0  0  0  0  0  0  0  0  0
 ITRead=  0  0  0  0  0  0  0  0  0  0  0  0
 MicOpt= -1 -1 -1 -1 -1 -1 -1 -1 -1 -1 -1 -1 -1 -1 -1 -1 -1 -1 -1 -1
 MicOpt= -1 -1 -1 -1 -1 -1 -1 -1 -1 -1 -1 -1 -1 -1 -1 -1 -1 -1 -1 -1
 MicOpt= -1 -1 -1 -1 -1 -1 -1 -1 -1 -1 -1 -1 -1 -1 -1 -1 -1 -1 -1 -1
 MicOpt= -1 -1 -1 -1 -1 -1 -1 -1 -1 -1 -1 -1
 NAtoms=     72 NQM=       72 NQMF=       0 NMMI=      0 NMMIF=      0
                NMic=       0 NMicF=      0.
                    Isotopes and Nuclear Properties:
 (Nuclear quadrupole moments (NQMom) in fm**2, nuclear magnetic moments (NMagM)
  in nuclear magnetons)

  Atom         1           2           3           4           5           6           7           8           9          10
 IAtWgt=          12          12          12          12          12          12          12          12          12          12
 AtmWgt=  12.0000000  12.0000000  12.0000000  12.0000000  12.0000000  12.0000000  12.0000000  12.0000000  12.0000000  12.0000000
 NucSpn=           0           0           0           0           0           0           0           0           0           0
 AtZEff=   0.0000000   0.0000000   0.0000000   0.0000000   0.0000000   0.0000000   0.0000000   0.0000000   0.0000000   0.0000000
 NQMom=    0.0000000   0.0000000   0.0000000   0.0000000   0.0000000   0.0000000   0.0000000   0.0000000   0.0000000   0.0000000
 NMagM=    0.0000000   0.0000000   0.0000000   0.0000000   0.0000000   0.0000000   0.0000000   0.0000000   0.0000000   0.0000000
 AtZNuc=   6.0000000   6.0000000   6.0000000   6.0000000   6.0000000   6.0000000   6.0000000   6.0000000   6.0000000   6.0000000

  Atom        11          12          13          14          15          16          17          18          19          20
 IAtWgt=           1           1           1           1           1           1          12          12          12          12
 AtmWgt=   1.0078250   1.0078250   1.0078250   1.0078250   1.0078250   1.0078250  12.0000000  12.0000000  12.0000000  12.0000000
 NucSpn=           1           1           1           1           1           1           0           0           0           0
 AtZEff=   0.0000000   0.0000000   0.0000000   0.0000000   0.0000000   0.0000000   0.0000000   0.0000000   0.0000000   0.0000000
 NQMom=    0.0000000   0.0000000   0.0000000   0.0000000   0.0000000   0.0000000   0.0000000   0.0000000   0.0000000   0.0000000
 NMagM=    2.7928460   2.7928460   2.7928460   2.7928460   2.7928460   2.7928460   0.0000000   0.0000000   0.0000000   0.0000000
 AtZNuc=   1.0000000   1.0000000   1.0000000   1.0000000   1.0000000   1.0000000   6.0000000   6.0000000   6.0000000   6.0000000

  Atom        21          22          23          24          25          26          27          28          29          30
 IAtWgt=           1           1          12          12          12          12           1           1          12          12
 AtmWgt=   1.0078250   1.0078250  12.0000000  12.0000000  12.0000000  12.0000000   1.0078250   1.0078250  12.0000000  12.0000000
 NucSpn=           1           1           0           0           0           0           1           1           0           0
 AtZEff=   0.0000000   0.0000000   0.0000000   0.0000000   0.0000000   0.0000000   0.0000000   0.0000000   0.0000000   0.0000000
 NQMom=    0.0000000   0.0000000   0.0000000   0.0000000   0.0000000   0.0000000   0.0000000   0.0000000   0.0000000   0.0000000
 NMagM=    2.7928460   2.7928460   0.0000000   0.0000000   0.0000000   0.0000000   2.7928460   2.7928460   0.0000000   0.0000000
 AtZNuc=   1.0000000   1.0000000   6.0000000   6.0000000   6.0000000   6.0000000   1.0000000   1.0000000   6.0000000   6.0000000

  Atom        31          32          33          34          35          36          37          38          39          40
 IAtWgt=          12          12           1           1           1           1          12          12          12          12
 AtmWgt=  12.0000000  12.0000000   1.0078250   1.0078250   1.0078250   1.0078250  12.0000000  12.0000000  12.0000000  12.0000000
 NucSpn=           0           0           1           1           1           1           0           0           0           0
 AtZEff=   0.0000000   0.0000000   0.0000000   0.0000000   0.0000000   0.0000000   0.0000000   0.0000000   0.0000000   0.0000000
 NQMom=    0.0000000   0.0000000   0.0000000   0.0000000   0.0000000   0.0000000   0.0000000   0.0000000   0.0000000   0.0000000
 NMagM=    0.0000000   0.0000000   2.7928460   2.7928460   2.7928460   2.7928460   0.0000000   0.0000000   0.0000000   0.0000000
 AtZNuc=   6.0000000   6.0000000   1.0000000   1.0000000   1.0000000   1.0000000   6.0000000   6.0000000   6.0000000   6.0000000

  Atom        41          42          43          44          45          46          47          48          49          50
 IAtWgt=          12          12          12          12          12          12           1           1           1           1
 AtmWgt=  12.0000000  12.0000000  12.0000000  12.0000000  12.0000000  12.0000000   1.0078250   1.0078250   1.0078250   1.0078250
 NucSpn=           0           0           0           0           0           0           1           1           1           1
 AtZEff=   0.0000000   0.0000000   0.0000000   0.0000000   0.0000000   0.0000000   0.0000000   0.0000000   0.0000000   0.0000000
 NQMom=    0.0000000   0.0000000   0.0000000   0.0000000   0.0000000   0.0000000   0.0000000   0.0000000   0.0000000   0.0000000
 NMagM=    0.0000000   0.0000000   0.0000000   0.0000000   0.0000000   0.0000000   2.7928460   2.7928460   2.7928460   2.7928460
 AtZNuc=   6.0000000   6.0000000   6.0000000   6.0000000   6.0000000   6.0000000   1.0000000   1.0000000   1.0000000   1.0000000

  Atom        51          52          53          54          55          56          57          58          59          60
 IAtWgt=           1           1          12          12          12          12           1           1          12          12
 AtmWgt=   1.0078250   1.0078250  12.0000000  12.0000000  12.0000000  12.0000000   1.0078250   1.0078250  12.0000000  12.0000000
 NucSpn=           1           1           0           0           0           0           1           1           0           0
 AtZEff=   0.0000000   0.0000000   0.0000000   0.0000000   0.0000000   0.0000000   0.0000000   0.0000000   0.0000000   0.0000000
 NQMom=    0.0000000   0.0000000   0.0000000   0.0000000   0.0000000   0.0000000   0.0000000   0.0000000   0.0000000   0.0000000
 NMagM=    2.7928460   2.7928460   0.0000000   0.0000000   0.0000000   0.0000000   2.7928460   2.7928460   0.0000000   0.0000000
 AtZNuc=   1.0000000   1.0000000   6.0000000   6.0000000   6.0000000   6.0000000   1.0000000   1.0000000   6.0000000   6.0000000

  Atom        61          62          63          64          65          66          67          68          69          70
 IAtWgt=          12          12           1           1          12          12          12          12           1           1
 AtmWgt=  12.0000000  12.0000000   1.0078250   1.0078250  12.0000000  12.0000000  12.0000000  12.0000000   1.0078250   1.0078250
 NucSpn=           0           0           1           1           0           0           0           0           1           1
 AtZEff=   0.0000000   0.0000000   0.0000000   0.0000000   0.0000000   0.0000000   0.0000000   0.0000000   0.0000000   0.0000000
 NQMom=    0.0000000   0.0000000   0.0000000   0.0000000   0.0000000   0.0000000   0.0000000   0.0000000   0.0000000   0.0000000
 NMagM=    0.0000000   0.0000000   2.7928460   2.7928460   0.0000000   0.0000000   0.0000000   0.0000000   2.7928460   2.7928460
 AtZNuc=   6.0000000   6.0000000   1.0000000   1.0000000   6.0000000   6.0000000   6.0000000   6.0000000   1.0000000   1.0000000

  Atom        71          72
 IAtWgt=           1           1
 AtmWgt=   1.0078250   1.0078250
 NucSpn=           1           1
 AtZEff=   0.0000000   0.0000000
 NQMom=    0.0000000   0.0000000
 NMagM=    2.7928460   2.7928460
 AtZNuc=   1.0000000   1.0000000
 Leave Link  101 at Wed Sep 27 16:57:23 2023, MaxMem=  3221225472 cpu:               2.6 elap:               0.1
 (Enter /home/center/opt/aarch64/apps/gaussian16/c01/g16/l202.exe)
 Stoichiometry    C44H28
 Framework group  CS[SG(C4H4),X(C40H24)]
 Deg. of freedom   109
 Full point group                 CS      NOp   2
 Largest Abelian subgroup         CS      NOp   2
 Largest concise Abelian subgroup CS      NOp   2
                         Standard orientation:                         
 ---------------------------------------------------------------------
 Center     Atomic      Atomic             Coordinates (Angstroms)
 Number     Number       Type             X           Y           Z
 ---------------------------------------------------------------------
      1          6           0        1.433939   -2.298097    3.671276
      2          6           0       -0.019725   -2.298097    3.671276
      3          6           0        2.115840   -2.298097    4.933593
      4          6           0       -0.701627   -2.298097    4.933593
      5          6           0        1.423153   -2.298097    6.106357
      6          6           0       -0.008940   -2.298097    6.106357
      7          6           0        2.113498   -2.298097    2.463318
      8          6           0        1.434703   -2.298097    1.224029
      9          6           0       -0.699284   -2.298097    2.463317
     10          6           0       -0.020490   -2.298097    1.224029
     11          1           0        3.200869   -2.298097    4.933260
     12          1           0        3.199215   -2.298097    2.463929
     13          1           0       -1.785000   -2.298097    2.463929
     14          1           0       -1.786655   -2.298097    4.933260
     15          1           0       -0.538189   -2.298097    7.052528
     16          1           0        1.952402   -2.298097    7.052528
     17          6           0        2.113993   -2.298097    0.000000
     18          6           0        1.434703   -2.298097   -1.224029
     19          6           0       -0.699779   -2.298097    0.000000
     20          6           0       -0.020490   -2.298097   -1.224029
     21          1           0        3.199616   -2.298097    0.000000
     22          1           0       -1.785401   -2.298097    0.000000
     23          6           0        2.113498   -2.298097   -2.463318
     24          6           0        1.433939   -2.298097   -3.671276
     25          6           0       -0.699284   -2.298097   -2.463317
     26          6           0       -0.019725   -2.298097   -3.671276
     27          1           0        3.199215   -2.298097   -2.463929
     28          1           0       -1.785000   -2.298097   -2.463929
     29          6           0        2.115840   -2.298097   -4.933593
     30          6           0        1.423153   -2.298097   -6.106357
     31          6           0       -0.701627   -2.298097   -4.933593
     32          6           0       -0.008940   -2.298097   -6.106357
     33          1           0        3.200869   -2.298097   -4.933260
     34          1           0        1.952402   -2.298097   -7.052528
     35          1           0       -0.538189   -2.298097   -7.052528
     36          1           0       -1.786655   -2.298097   -4.933260
     37          6           0       -0.707107    3.024929    3.671276
     38          6           0       -0.707107    1.571265    3.671276
     39          6           0       -0.707107    3.706830    4.933593
     40          6           0       -0.707107    0.889363    4.933593
     41          6           0       -0.707107    3.014144    6.106357
     42          6           0       -0.707107    1.582050    6.106357
     43          6           0       -0.707107    3.704488    2.463318
     44          6           0       -0.707107    3.025694    1.224029
     45          6           0       -0.707107    0.891706    2.463317
     46          6           0       -0.707107    1.570500    1.224029
     47          1           0       -0.707107    4.791859    4.933260
     48          1           0       -0.707107    4.790205    2.463929
     49          1           0       -0.707107   -0.194010    2.463929
     50          1           0       -0.707107   -0.195665    4.933260
     51          1           0       -0.707107    1.052802    7.052528
     52          1           0       -0.707107    3.543392    7.052528
     53          6           0       -0.707107    3.704983    0.000000
     54          6           0       -0.707107    3.025694   -1.224029
     55          6           0       -0.707107    0.891211    0.000000
     56          6           0       -0.707107    1.570500   -1.224029
     57          1           0       -0.707107    4.790606    0.000000
     58          1           0       -0.707107   -0.194410    0.000000
     59          6           0       -0.707107    3.704488   -2.463318
     60          6           0       -0.707107    3.024929   -3.671276
     61          6           0       -0.707107    0.891706   -2.463317
     62          6           0       -0.707107    1.571265   -3.671276
     63          1           0       -0.707107    4.790205   -2.463929
     64          1           0       -0.707107   -0.194010   -2.463929
     65          6           0       -0.707107    3.706830   -4.933593
     66          6           0       -0.707107    3.014144   -6.106357
     67          6           0       -0.707107    0.889363   -4.933593
     68          6           0       -0.707107    1.582050   -6.106357
     69          1           0       -0.707107    4.791859   -4.933260
     70          1           0       -0.707107    3.543392   -7.052528
     71          1           0       -0.707107    1.052802   -7.052528
     72          1           0       -0.707107   -0.195665   -4.933260
 ---------------------------------------------------------------------
 Rotational constants (GHZ):           0.1269935           0.0563744           0.0414914
 Leave Link  202 at Wed Sep 27 16:57:26 2023, MaxMem=  3221225472 cpu:               0.6 elap:               0.0
 (Enter /home/center/opt/aarch64/apps/gaussian16/c01/g16/l122.exe)
 Counterpoise: doing full-system calculation.
 Leave Link  122 at Wed Sep 27 16:57:28 2023, MaxMem=  3221225472 cpu:               0.4 elap:               0.0
 (Enter /home/center/opt/aarch64/apps/gaussian16/c01/g16/l301.exe)
 Standard basis: 6-311G(d,p) (5D, 7F)
 Ernie: Thresh=  0.10000D-02 Tol=  0.10000D-05 Strict=F.
 There are   528 symmetry adapted cartesian basis functions of A'  symmetry.
 There are   476 symmetry adapted cartesian basis functions of A"  symmetry.
 There are   504 symmetry adapted basis functions of A'  symmetry.
 There are   456 symmetry adapted basis functions of A"  symmetry.
   960 basis functions,  1632 primitive gaussians,  1004 cartesian basis functions
   146 alpha electrons      146 beta electrons
       nuclear repulsion energy      4745.0109683269 Hartrees.
 IExCor=  402 DFT=T Ex+Corr=B3LYP ExCW=0 ScaHFX=  0.200000
 ScaDFX=  0.800000  0.720000  1.000000  0.810000 ScalE2=  1.000000  1.000000
 IRadAn=      5 IRanWt=     -1 IRanGd=            0 ICorTp=0 IEmpDi=131
 NAtoms=   72 NActive=   72 NUniq=   40 SFac= 3.24D+00 NAtFMM=   60 NAOKFM=T Big=F
 Integral buffers will be    131072 words long.
 Raffenetti 2 integral format.
 Two-electron integral symmetry is turned on.
 R6Disp:  Grimme-D3 Dispersion energy=       -0.0903697073 Hartrees.
 Nuclear repulsion after empirical dispersion term =     4744.9205986196 Hartrees.
 Leave Link  301 at Wed Sep 27 16:57:30 2023, MaxMem=  3221225472 cpu:               2.0 elap:               0.1
 (Enter /home/center/opt/aarch64/apps/gaussian16/c01/g16/l302.exe)
 NPDir=0 NMtPBC=     1 NCelOv=     1 NCel=       1 NClECP=     1 NCelD=      1
         NCelK=      1 NCelE2=     1 NClLst=     1 CellRange=     0.0.
 One-electron integrals computed using PRISM.
 One-electron integral symmetry used in STVInt
 NBasis=   960 RedAO= T EigKep=  3.53D-05  NBF=   504   456
 NBsUse=   960 1.00D-06 EigRej= -1.00D+00 NBFU=   504   456
 Precomputing XC quadrature grid using
 IXCGrd= 4 IRadAn=           5 IRanWt=          -1 IRanGd=           0 AccXCQ= 0.00D+00.
 Generated NRdTot=       0 NPtTot=           0 NUsed=           0 NTot=          32
 NSgBfM=   990   990   990   990   990 MxSgAt=    72 MxSgA2=    72.
 Leave Link  302 at Wed Sep 27 16:57:35 2023, MaxMem=  3221225472 cpu:              64.3 elap:               2.0
 (Enter /home/center/opt/aarch64/apps/gaussian16/c01/g16/l303.exe)
 DipDrv:  MaxL=1.
 Leave Link  303 at Wed Sep 27 16:57:37 2023, MaxMem=  3221225472 cpu:              14.9 elap:               0.5
 (Enter /home/center/opt/aarch64/apps/gaussian16/c01/g16/l401.exe)
 ExpMin= 1.03D-01 ExpMax= 4.56D+03 ExpMxC= 6.82D+02 IAcc=3 IRadAn=         5 AccDes= 0.00D+00
 Harris functional with IExCor=  402 and IRadAn=       5 diagonalized for initial guess.
 HarFok:  IExCor=  402 AccDes= 0.00D+00 IRadAn=         5 IDoV= 1 UseB2=F ITyADJ=14
 ICtDFT=  3500011 ScaDFX=  1.000000  1.000000  1.000000  1.000000
 FoFCou: FMM=F IPFlag=           0 FMFlag=      100000 FMFlg1=        2000
         NFxFlg=           0 DoJE=T BraDBF=F KetDBF=T FulRan=T
         wScrn=  0.000000 ICntrl=       500 IOpCl=  0 I1Cent=   200000004 NGrid=           0
         NMat0=    1 NMatS0=      1 NMatT0=    0 NMatD0=    1 NMtDS0=    0 NMtDT0=    0
 Petite list used in FoFCou.
 Harris En= -1694.11239485052    
 JPrj=0 DoOrth=F DoCkMO=F.
 Initial guess orbital symmetries:
       Occupied  (A") (A') (A") (A') (A") (A') (A") (A') (A') (A")
                 (A") (A') (A") (A') (A") (A') (A") (A') (A') (A")
                 (A') (A") (A') (A') (A") (A') (A') (A') (A") (A')
                 (A") (A') (A") (A') (A") (A') (A") (A') (A") (A')
                 (A") (A') (A') (A") (A') (A') (A") (A") (A') (A')
                 (A") (A") (A') (A') (A') (A') (A") (A") (A') (A')
                 (A") (A") (A") (A") (A') (A') (A') (A') (A") (A")
                 (A") (A") (A') (A') (A") (A') (A") (A') (A') (A')
                 (A') (A') (A") (A") (A") (A") (A') (A") (A") (A')
                 (A') (A') (A") (A") (A') (A') (A') (A") (A') (A")
                 (A') (A') (A") (A") (A") (A") (A') (A') (A') (A')
                 (A") (A") (A') (A') (A") (A") (A") (A') (A') (A")
                 (A') (A") (A") (A') (A') (A') (A") (A") (A') (A')
                 (A") (A") (A') (A') (A") (A") (A') (A') (A') (A')
                 (A") (A") (A") (A") (A') (A')
       Virtual   (A') (A') (A") (A") (A") (A") (A') (A') (A') (A')
                 (A") (A") (A') (A') (A") (A") (A') (A") (A') (A')
                 (A') (A') (A") (A') (A") (A') (A") (A") (A') (A")
                 (A') (A") (A') (A") (A') (A") (A") (A') (A') (A')
                 (A") (A') (A") (A') (A") (A') (A") (A') (A') (A')
                 (A') (A") (A') (A') (A") (A') (A") (A') (A") (A")
                 (A") (A") (A') (A') (A") (A') (A") (A") (A') (A")
                 (A') (A") (A') (A") (A') (A') (A") (A") (A') (A")
                 (A') (A') (A") (A') (A") (A') (A') (A') (A") (A')
                 (A') (A") (A") (A") (A") (A') (A') (A') (A") (A')
                 (A") (A') (A") (A') (A') (A") (A") (A') (A') (A")
                 (A') (A") (A") (A') (A') (A') (A") (A') (A") (A')
                 (A') (A") (A') (A") (A') (A") (A") (A') (A") (A')
                 (A") (A") (A') (A') (A") (A") (A') (A') (A') (A")
                 (A') (A") (A") (A') (A") (A') (A') (A') (A") (A')
                 (A") (A') (A') (A") (A") (A") (A') (A") (A") (A')
                 (A') (A') (A") (A") (A') (A') (A") (A') (A') (A")
                 (A') (A") (A') (A') (A") (A') (A") (A") (A') (A")
                 (A') (A") (A') (A') (A") (A') (A") (A') (A') (A")
                 (A") (A") (A') (A') (A') (A") (A') (A") (A') (A")
                 (A') (A") (A") (A') (A') (A") (A') (A") (A') (A")
                 (A') (A") (A") (A') (A') (A") (A") (A') (A") (A')
                 (A') (A') (A") (A") (A') (A") (A') (A") (A') (A")
                 (A') (A') (A') (A') (A") (A") (A') (A") (A') (A")
                 (A") (A') (A") (A') (A") (A') (A") (A') (A") (A')
                 (A") (A') (A") (A') (A") (A') (A') (A") (A") (A')
                 (A') (A") (A") (A') (A") (A') (A") (A') (A") (A')
                 (A") (A') (A") (A') (A") (A') (A') (A") (A') (A")
                 (A") (A') (A") (A') (A') (A") (A') (A') (A") (A")
                 (A') (A") (A') (A") (A") (A") (A') (A') (A") (A')
                 (A") (A') (A") (A') (A') (A') (A") (A") (A') (A")
                 (A') (A") (A') (A") (A") (A") (A') (A') (A') (A')
                 (A') (A") (A") (A') (A') (A") (A') (A") (A") (A")
                 (A') (A") (A') (A") (A') (A') (A") (A') (A") (A')
                 (A") (A') (A') (A") (A') (A") (A') (A") (A') (A')
                 (A") (A') (A") (A') (A') (A') (A") (A") (A') (A")
                 (A') (A") (A') (A") (A') (A") (A') (A") (A") (A')
                 (A") (A") (A') (A") (A") (A") (A') (A') (A') (A')
                 (A") (A') (A') (A') (A") (A') (A") (A') (A") (A')
                 (A') (A") (A') (A") (A") (A") (A') (A") (A') (A')
                 (A') (A") (A') (A") (A') (A") (A") (A') (A") (A')
                 (A') (A") (A') (A") (A') (A') (A') (A") (A') (A")
                 (A') (A') (A') (A") (A") (A') (A') (A") (A") (A")
                 (A') (A") (A") (A") (A') (A") (A") (A') (A') (A")
                 (A') (A") (A') (A") (A') (A') (A") (A') (A") (A")
                 (A') (A') (A") (A") (A') (A") (A') (A') (A') (A")
                 (A") (A") (A') (A') (A") (A") (A') (A") (A') (A")
                 (A') (A") (A') (A') (A") (A') (A") (A') (A') (A')
                 (A") (A") (A") (A') (A") (A") (A") (A') (A") (A")
                 (A') (A') (A") (A") (A') (A") (A') (A") (A') (A')
                 (A') (A") (A') (A") (A') (A") (A') (A') (A") (A')
                 (A') (A") (A") (A') (A") (A") (A') (A') (A") (A")
                 (A') (A") (A') (A") (A') (A') (A") (A') (A') (A")
                 (A') (A") (A") (A') (A") (A") (A') (A") (A') (A')
                 (A") (A') (A') (A") (A") (A") (A') (A") (A') (A")
                 (A") (A') (A") (A') (A") (A') (A') (A") (A') (A')
                 (A") (A') (A') (A") (A') (A") (A') (A") (A') (A")
                 (A') (A") (A") (A') (A') (A") (A") (A') (A") (A')
                 (A') (A') (A") (A') (A") (A') (A") (A') (A") (A')
                 (A') (A') (A") (A') (A') (A") (A") (A') (A") (A')
                 (A") (A") (A') (A") (A') (A") (A') (A") (A') (A')
                 (A') (A") (A') (A') (A") (A") (A") (A") (A') (A')
                 (A") (A') (A") (A") (A') (A') (A") (A') (A') (A')
                 (A') (A") (A") (A') (A") (A") (A") (A") (A') (A')
                 (A") (A") (A') (A') (A') (A') (A') (A") (A') (A")
                 (A") (A') (A') (A') (A") (A') (A") (A') (A") (A')
                 (A") (A") (A') (A") (A') (A") (A') (A') (A") (A')
                 (A") (A") (A') (A") (A') (A') (A") (A") (A') (A')
                 (A") (A') (A") (A') (A') (A") (A") (A') (A") (A')
                 (A") (A') (A") (A') (A") (A') (A') (A") (A") (A')
                 (A") (A') (A") (A') (A') (A") (A') (A") (A') (A")
                 (A") (A") (A') (A') (A") (A') (A') (A") (A') (A')
                 (A") (A") (A') (A') (A") (A') (A") (A') (A") (A')
                 (A") (A') (A") (A') (A") (A') (A') (A") (A') (A")
                 (A") (A') (A') (A") (A') (A') (A") (A') (A') (A')
                 (A") (A") (A') (A") (A") (A') (A') (A') (A") (A")
                 (A") (A') (A") (A') (A") (A") (A') (A") (A') (A")
                 (A') (A') (A") (A") (A') (A') (A') (A") (A') (A")
                 (A") (A") (A') (A') (A") (A') (A') (A") (A') (A')
                 (A") (A") (A") (A") (A') (A') (A') (A') (A") (A")
                 (A') (A") (A') (A') (A") (A") (A') (A') (A") (A')
                 (A') (A") (A') (A")
 The electronic state of the initial guess is 1-A'.
 Leave Link  401 at Wed Sep 27 16:57:43 2023, MaxMem=  3221225472 cpu:             108.4 elap:               2.7
 (Enter /home/center/opt/aarch64/apps/gaussian16/c01/g16/l502.exe)
 Integral symmetry usage will be decided dynamically.
 Closed shell SCF:
 Using DIIS extrapolation, IDIIS=  1040.
 NGot=  3221225472 LenX=  3219153746 LenY=  3218144726
 Requested convergence on RMS density matrix=1.00D-08 within 128 cycles.
 Requested convergence on MAX density matrix=1.00D-06.
 Requested convergence on             energy=1.00D-06.
 No special actions if energy rises.
 Fock matrices will be formed incrementally for  20 cycles.
 Integral accuracy reduced to 1.0D-05 until final iterations.

 Cycle   1  Pass 0  IDiag  1:
 FoFJK:  IHMeth= 1 ICntrl=       0 DoSepK=F KAlg= 0 I1Cent=           0 FoldK=F
 IRaf= 570000000 NMat=       1 IRICut=       1 DoRegI=T DoRafI=F ISym2E= 1 IDoP0=0 IntGTp=1.
 FoFCou: FMM=F IPFlag=           0 FMFlag=      100000 FMFlg1=        2000
         NFxFlg=           0 DoJE=F BraDBF=F KetDBF=F FulRan=T
         wScrn=  0.000000 ICntrl=         0 IOpCl=  0 I1Cent=           0 NGrid=           0
         NMat0=    1 NMatS0=      1 NMatT0=    0 NMatD0=    1 NMtDS0=    0 NMtDT0=    0
 Petite list used in FoFCou.
 E= -1693.15954022687    
 DIIS: error= 4.48D-02 at cycle   1 NSaved=   1.
 NSaved= 1 IEnMin= 1 EnMin= -1693.15954022687     IErMin= 1 ErrMin= 4.48D-02
 ErrMax= 4.48D-02  0.00D+00 EMaxC= 1.00D-01 BMatC= 8.93D-01 BMatP= 8.93D-01
 IDIUse=3 WtCom= 5.52D-01 WtEn= 4.48D-01
 Coeff-Com:  0.100D+01
 Coeff-En:   0.100D+01
 Coeff:      0.100D+01
 Gap=     0.047 Goal=   None    Shift=    0.000
 GapD=    0.047 DampG=0.250 DampE=0.500 DampFc=0.2500 IDamp=-1.
 Damping current iteration by 2.50D-01
 RMSDP=1.75D-03 MaxDP=8.53D-02              OVMax= 1.64D-01

 Cycle   2  Pass 0  IDiag  1:
 RMSU=  4.24D-04    CP:  9.83D-01
 E= -1693.46382510514     Delta-E=       -0.304284878271 Rises=F Damp=T
 DIIS: error= 2.66D-02 at cycle   2 NSaved=   2.
 NSaved= 2 IEnMin= 2 EnMin= -1693.46382510514     IErMin= 2 ErrMin= 2.66D-02
 ErrMax= 2.66D-02  0.00D+00 EMaxC= 1.00D-01 BMatC= 3.00D-01 BMatP= 8.93D-01
 IDIUse=3 WtCom= 7.34D-01 WtEn= 2.66D-01
 Coeff-Com: -0.122D+01 0.222D+01
 Coeff-En:   0.000D+00 0.100D+01
 Coeff:     -0.896D+00 0.190D+01
 Gap=     0.054 Goal=   None    Shift=    0.000
 RMSDP=7.26D-04 MaxDP=3.48D-02 DE=-3.04D-01 OVMax= 1.48D-01

 Cycle   3  Pass 0  IDiag  1:
 RMSU=  4.82D-04    CP:  9.57D-01  2.22D+00
 E= -1694.01902691348     Delta-E=       -0.555201808345 Rises=F Damp=F
 DIIS: error= 9.41D-03 at cycle   3 NSaved=   3.
 NSaved= 3 IEnMin= 3 EnMin= -1694.01902691348     IErMin= 3 ErrMin= 9.41D-03
 ErrMax= 9.41D-03  0.00D+00 EMaxC= 1.00D-01 BMatC= 1.46D-02 BMatP= 3.00D-01
 IDIUse=3 WtCom= 9.06D-01 WtEn= 9.41D-02
 Coeff-Com: -0.301D+00 0.601D+00 0.699D+00
 Coeff-En:   0.000D+00 0.000D+00 0.100D+01
 Coeff:     -0.272D+00 0.545D+00 0.727D+00
 Gap=     0.062 Goal=   None    Shift=    0.000
 RMSDP=3.08D-04 MaxDP=2.04D-02 DE=-5.55D-01 OVMax= 1.80D-01

 Cycle   4  Pass 0  IDiag  1:
 RMSU=  2.61D-04    CP:  9.58D-01  2.14D+00  6.67D-01
 E= -1694.00694447264     Delta-E=        0.012082440850 Rises=F Damp=F
 DIIS: error= 1.62D-02 at cycle   4 NSaved=   4.
 NSaved= 4 IEnMin= 3 EnMin= -1694.01902691348     IErMin= 3 ErrMin= 9.41D-03
 ErrMax= 1.62D-02  0.00D+00 EMaxC= 1.00D-01 BMatC= 2.30D-02 BMatP= 1.46D-02
 IDIUse=2 WtCom= 0.00D+00 WtEn= 1.00D+00
 Coeff-En:   0.000D+00 0.000D+00 0.608D+00 0.392D+00
 Coeff:      0.000D+00 0.000D+00 0.608D+00 0.392D+00
 Gap=     0.057 Goal=   None    Shift=    0.000
 RMSDP=1.82D-04 MaxDP=1.34D-02 DE= 1.21D-02 OVMax= 1.32D-01

 Cycle   5  Pass 0  IDiag  1:
 RMSU=  9.50D-05    CP:  9.59D-01  2.14D+00  7.59D-01  4.30D-01
 E= -1694.03362776972     Delta-E=       -0.026683297089 Rises=F Damp=F
 DIIS: error= 2.63D-03 at cycle   5 NSaved=   5.
 NSaved= 5 IEnMin= 5 EnMin= -1694.03362776972     IErMin= 5 ErrMin= 2.63D-03
 ErrMax= 2.63D-03  0.00D+00 EMaxC= 1.00D-01 BMatC= 1.45D-03 BMatP= 1.46D-02
 IDIUse=3 WtCom= 9.74D-01 WtEn= 2.63D-02
 Coeff-Com: -0.174D-01 0.414D-01 0.301D+00 0.216D+00 0.459D+00
 Coeff-En:   0.000D+00 0.000D+00 0.000D+00 0.000D+00 0.100D+01
 Coeff:     -0.170D-01 0.403D-01 0.293D+00 0.210D+00 0.473D+00
 Gap=     0.058 Goal=   None    Shift=    0.000
 RMSDP=6.30D-05 MaxDP=3.72D-03 DE=-2.67D-02 OVMax= 2.70D-02

 Cycle   6  Pass 0  IDiag  1:
 RMSU=  3.77D-05    CP:  9.58D-01  2.15D+00  7.86D-01  4.69D-01  5.06D-01
 E= -1694.03461371616     Delta-E=       -0.000985946437 Rises=F Damp=F
 DIIS: error= 1.35D-03 at cycle   6 NSaved=   6.
 NSaved= 6 IEnMin= 6 EnMin= -1694.03461371616     IErMin= 6 ErrMin= 1.35D-03
 ErrMax= 1.35D-03  0.00D+00 EMaxC= 1.00D-01 BMatC= 4.55D-04 BMatP= 1.45D-03
 IDIUse=3 WtCom= 9.87D-01 WtEn= 1.35D-02
 Coeff-Com: -0.375D-02 0.686D-02 0.128D+00 0.929D-01 0.363D+00 0.413D+00
 Coeff-En:   0.000D+00 0.000D+00 0.000D+00 0.000D+00 0.300D+00 0.700D+00
 Coeff:     -0.370D-02 0.676D-02 0.127D+00 0.916D-01 0.362D+00 0.416D+00
 Gap=     0.057 Goal=   None    Shift=    0.000
 RMSDP=2.95D-05 MaxDP=1.52D-03 DE=-9.86D-04 OVMax= 1.39D-02

 Cycle   7  Pass 0  IDiag  1:
 RMSU=  1.19D-05    CP:  9.58D-01  2.16D+00  7.91D-01  4.50D-01  6.06D-01
                    CP:  3.45D-01
 E= -1694.03514763620     Delta-E=       -0.000533920037 Rises=F Damp=F
 DIIS: error= 4.06D-04 at cycle   7 NSaved=   7.
 NSaved= 7 IEnMin= 7 EnMin= -1694.03514763620     IErMin= 7 ErrMin= 4.06D-04
 ErrMax= 4.06D-04  0.00D+00 EMaxC= 1.00D-01 BMatC= 3.24D-05 BMatP= 4.55D-04
 IDIUse=3 WtCom= 9.96D-01 WtEn= 4.06D-03
 Coeff-Com: -0.150D-03-0.231D-03 0.621D-01 0.441D-01 0.205D+00 0.283D+00
 Coeff-Com:  0.406D+00
 Coeff-En:   0.000D+00 0.000D+00 0.000D+00 0.000D+00 0.000D+00 0.252D-01
 Coeff-En:   0.975D+00
 Coeff:     -0.149D-03-0.231D-03 0.619D-01 0.439D-01 0.205D+00 0.282D+00
 Coeff:      0.408D+00
 Gap=     0.057 Goal=   None    Shift=    0.000
 RMSDP=7.34D-06 MaxDP=4.93D-04 DE=-5.34D-04 OVMax= 4.03D-03

 Initial convergence to 1.0D-05 achieved.  Increase integral accuracy.
 Cycle   8  Pass 1  IDiag  1:
 E= -1694.03470470536     Delta-E=        0.000442930834 Rises=F Damp=F
 DIIS: error= 8.66D-04 at cycle   1 NSaved=   1.
 NSaved= 1 IEnMin= 1 EnMin= -1694.03470470536     IErMin= 1 ErrMin= 8.66D-04
 ErrMax= 8.66D-04  0.00D+00 EMaxC= 1.00D-01 BMatC= 5.54D-05 BMatP= 5.54D-05
 IDIUse=3 WtCom= 9.91D-01 WtEn= 8.66D-03
 Coeff-Com:  0.100D+01
 Coeff-En:   0.100D+01
 Coeff:      0.100D+01
 Gap=     0.058 Goal=   None    Shift=    0.000
 RMSDP=7.34D-06 MaxDP=4.93D-04 DE= 4.43D-04 OVMax= 3.38D-03

 Cycle   9  Pass 1  IDiag  1:
 RMSU=  3.48D-04    CP:  9.96D-01
 E= -1694.03474633909     Delta-E=       -0.000041633724 Rises=F Damp=F
 DIIS: error= 2.97D-04 at cycle   2 NSaved=   2.
 NSaved= 2 IEnMin= 2 EnMin= -1694.03474633909     IErMin= 2 ErrMin= 2.97D-04
 ErrMax= 2.97D-04  0.00D+00 EMaxC= 1.00D-01 BMatC= 9.17D-06 BMatP= 5.54D-05
 IDIUse=3 WtCom= 9.97D-01 WtEn= 2.97D-03
 Coeff-Com:  0.174D+00 0.826D+00
 Coeff-En:   0.000D+00 0.100D+01
 Coeff:      0.174D+00 0.826D+00
 Gap=     0.057 Goal=   None    Shift=    0.000
 RMSDP=1.13D-05 MaxDP=8.49D-04 DE=-4.16D-05 OVMax= 7.64D-03

 Cycle  10  Pass 1  IDiag  1:
 RMSU=  1.09D-05    CP:  9.96D-01  1.01D+00
 E= -1694.03470966560     Delta-E=        0.000036673494 Rises=F Damp=F
 DIIS: error= 6.58D-04 at cycle   3 NSaved=   3.
 NSaved= 3 IEnMin= 2 EnMin= -1694.03474633909     IErMin= 2 ErrMin= 2.97D-04
 ErrMax= 6.58D-04  0.00D+00 EMaxC= 1.00D-01 BMatC= 3.84D-05 BMatP= 9.17D-06
 IDIUse=3 WtCom= 2.80D-01 WtEn= 7.20D-01
 Coeff-Com:  0.204D-03 0.673D+00 0.327D+00
 Coeff-En:   0.000D+00 0.740D+00 0.260D+00
 Coeff:      0.572D-04 0.721D+00 0.279D+00
 Gap=     0.057 Goal=   None    Shift=    0.000
 RMSDP=6.20D-06 MaxDP=4.90D-04 DE= 3.67D-05 OVMax= 4.53D-03

 Cycle  11  Pass 1  IDiag  1:
 RMSU=  1.38D-06    CP:  9.96D-01  1.01D+00  4.45D-01
 E= -1694.03475582342     Delta-E=       -0.000046157827 Rises=F Damp=F
 DIIS: error= 8.52D-05 at cycle   4 NSaved=   4.
 NSaved= 4 IEnMin= 4 EnMin= -1694.03475582342     IErMin= 4 ErrMin= 8.52D-05
 ErrMax= 8.52D-05  0.00D+00 EMaxC= 1.00D-01 BMatC= 1.48D-06 BMatP= 9.17D-06
 IDIUse=1 WtCom= 1.00D+00 WtEn= 0.00D+00
 Coeff-Com: -0.348D-02 0.451D+00 0.150D+00 0.402D+00
 Coeff:     -0.348D-02 0.451D+00 0.150D+00 0.402D+00
 Gap=     0.058 Goal=   None    Shift=    0.000
 RMSDP=1.33D-06 MaxDP=9.73D-05 DE=-4.62D-05 OVMax= 7.12D-04

 Cycle  12  Pass 1  IDiag  1:
 RMSU=  5.82D-07    CP:  9.96D-01  1.01D+00  3.42D-01  7.00D-01
 E= -1694.03475749614     Delta-E=       -0.000001672722 Rises=F Damp=F
 DIIS: error= 1.69D-05 at cycle   5 NSaved=   5.
 NSaved= 5 IEnMin= 5 EnMin= -1694.03475749614     IErMin= 5 ErrMin= 1.69D-05
 ErrMax= 1.69D-05  0.00D+00 EMaxC= 1.00D-01 BMatC= 2.54D-08 BMatP= 1.48D-06
 IDIUse=1 WtCom= 1.00D+00 WtEn= 0.00D+00
 Coeff-Com: -0.247D-02 0.292D+00 0.933D-01 0.282D+00 0.335D+00
 Coeff:     -0.247D-02 0.292D+00 0.933D-01 0.282D+00 0.335D+00
 Gap=     0.058 Goal=   None    Shift=    0.000
 RMSDP=2.02D-07 MaxDP=1.59D-05 DE=-1.67D-06 OVMax= 1.42D-04

 Cycle  13  Pass 1  IDiag  1:
 RMSU=  1.64D-07    CP:  9.96D-01  1.01D+00  3.42D-01  7.38D-01  8.18D-01
 E= -1694.03475752469     Delta-E=       -0.000000028545 Rises=F Damp=F
 DIIS: error= 4.21D-06 at cycle   6 NSaved=   6.
 NSaved= 6 IEnMin= 6 EnMin= -1694.03475752469     IErMin= 6 ErrMin= 4.21D-06
 ErrMax= 4.21D-06  0.00D+00 EMaxC= 1.00D-01 BMatC= 1.39D-09 BMatP= 2.54D-08
 IDIUse=1 WtCom= 1.00D+00 WtEn= 0.00D+00
 Coeff-Com: -0.109D-02 0.124D+00 0.386D-01 0.125D+00 0.214D+00 0.500D+00
 Coeff:     -0.109D-02 0.124D+00 0.386D-01 0.125D+00 0.214D+00 0.500D+00
 Gap=     0.058 Goal=   None    Shift=    0.000
 RMSDP=6.56D-08 MaxDP=4.24D-06 DE=-2.85D-08 OVMax= 3.75D-05

 Cycle  14  Pass 1  IDiag  1:
 RMSU=  5.15D-08    CP:  9.96D-01  1.01D+00  3.41D-01  7.29D-01  8.63D-01
                    CP:  8.34D-01
 E= -1694.03475752625     Delta-E=       -0.000000001564 Rises=F Damp=F
 DIIS: error= 9.84D-07 at cycle   7 NSaved=   7.
 NSaved= 7 IEnMin= 7 EnMin= -1694.03475752625     IErMin= 7 ErrMin= 9.84D-07
 ErrMax= 9.84D-07  0.00D+00 EMaxC= 1.00D-01 BMatC= 1.81D-10 BMatP= 1.39D-09
 IDIUse=1 WtCom= 1.00D+00 WtEn= 0.00D+00
 Coeff-Com: -0.417D-03 0.466D-01 0.140D-01 0.487D-01 0.924D-01 0.321D+00
 Coeff-Com:  0.477D+00
 Coeff:     -0.417D-03 0.466D-01 0.140D-01 0.487D-01 0.924D-01 0.321D+00
 Coeff:      0.477D+00
 Gap=     0.058 Goal=   None    Shift=    0.000
 RMSDP=1.70D-08 MaxDP=6.86D-07 DE=-1.56D-09 OVMax= 5.65D-06

 Cycle  15  Pass 1  IDiag  1:
 RMSU=  1.20D-08    CP:  9.96D-01  1.01D+00  3.41D-01  7.32D-01  8.65D-01
                    CP:  8.55D-01  7.93D-01
 E= -1694.03475752643     Delta-E=       -0.000000000182 Rises=F Damp=F
 DIIS: error= 2.25D-07 at cycle   8 NSaved=   8.
 NSaved= 8 IEnMin= 8 EnMin= -1694.03475752643     IErMin= 8 ErrMin= 2.25D-07
 ErrMax= 2.25D-07  0.00D+00 EMaxC= 1.00D-01 BMatC= 1.87D-11 BMatP= 1.81D-10
 IDIUse=1 WtCom= 1.00D+00 WtEn= 0.00D+00
 Coeff-Com: -0.757D-05 0.282D-03-0.412D-03 0.227D-02 0.234D-02 0.910D-01
 Coeff-Com:  0.248D+00 0.657D+00
 Coeff:     -0.757D-05 0.282D-03-0.412D-03 0.227D-02 0.234D-02 0.910D-01
 Coeff:      0.248D+00 0.657D+00
 Gap=     0.058 Goal=   None    Shift=    0.000
 RMSDP=7.17D-09 MaxDP=3.04D-07 DE=-1.82D-10 OVMax= 1.73D-06

 SCF Done:  E(RB3LYP) =  -1694.03475753     A.U. after   15 cycles
            NFock= 15  Conv=0.72D-08     -V/T= 2.0042
 KE= 1.686923246133D+03 PE=-1.342062647919D+04 EE= 5.294747876909D+03
 Leave Link  502 at Wed Sep 27 16:59:36 2023, MaxMem=  3221225472 cpu:            4084.1 elap:             111.2
 (Enter /home/center/opt/aarch64/apps/gaussian16/c01/g16/l601.exe)
 Copying SCF densities to generalized density rwf, IOpCl= 0 IROHF=0.

 **********************************************************************

            Population analysis using the SCF Density.

 **********************************************************************

 Orbital symmetries:
       Occupied  (A") (A') (A') (A") (A") (A') (A") (A') (A') (A")
                 (A') (A') (A") (A') (A") (A') (A") (A') (A") (A')
                 (A") (A') (A") (A') (A") (A') (A') (A") (A') (A")
                 (A") (A') (A") (A') (A') (A") (A') (A") (A') (A')
                 (A") (A') (A") (A') (A') (A") (A') (A") (A') (A')
                 (A") (A") (A') (A') (A") (A') (A') (A') (A") (A")
                 (A') (A") (A") (A") (A') (A') (A') (A') (A") (A")
                 (A') (A") (A") (A") (A') (A') (A") (A') (A') (A')
                 (A') (A") (A") (A') (A") (A") (A') (A") (A') (A')
                 (A") (A') (A") (A") (A') (A') (A") (A') (A") (A')
                 (A") (A') (A') (A') (A') (A") (A") (A') (A") (A')
                 (A') (A") (A') (A") (A") (A") (A") (A') (A") (A')
                 (A') (A') (A') (A") (A") (A') (A') (A') (A") (A")
                 (A") (A") (A') (A') (A") (A') (A") (A') (A') (A")
                 (A') (A") (A") (A") (A') (A')
       Virtual   (A') (A') (A") (A") (A") (A") (A') (A") (A') (A')
                 (A') (A') (A") (A') (A') (A") (A') (A") (A') (A")
                 (A') (A') (A") (A") (A') (A") (A') (A") (A") (A')
                 (A") (A') (A") (A') (A') (A") (A") (A') (A') (A')
                 (A") (A') (A") (A') (A') (A") (A') (A") (A") (A")
                 (A') (A') (A') (A') (A') (A") (A') (A") (A') (A')
                 (A") (A") (A") (A") (A') (A') (A") (A') (A") (A')
                 (A") (A") (A') (A') (A") (A') (A") (A') (A") (A")
                 (A') (A') (A') (A') (A") (A') (A') (A") (A") (A')
                 (A') (A") (A") (A') (A") (A') (A') (A") (A') (A")
                 (A') (A') (A") (A') (A") (A") (A") (A') (A") (A')
                 (A") (A') (A") (A') (A') (A") (A') (A") (A') (A")
                 (A') (A') (A") (A') (A') (A") (A') (A') (A") (A")
                 (A') (A') (A') (A") (A') (A") (A') (A") (A") (A')
                 (A') (A') (A") (A') (A") (A") (A") (A') (A") (A')
                 (A") (A") (A') (A") (A') (A") (A') (A') (A') (A')
                 (A") (A") (A') (A") (A') (A") (A') (A') (A") (A')
                 (A') (A") (A") (A') (A") (A') (A") (A") (A') (A")
                 (A') (A') (A") (A') (A") (A") (A') (A") (A') (A")
                 (A') (A') (A") (A') (A') (A") (A") (A') (A") (A')
                 (A") (A') (A") (A') (A") (A') (A") (A') (A') (A")
                 (A') (A') (A') (A") (A") (A") (A') (A") (A') (A")
                 (A") (A') (A') (A") (A') (A") (A") (A') (A') (A')
                 (A') (A") (A') (A") (A") (A') (A") (A') (A") (A')
                 (A') (A") (A') (A") (A") (A') (A") (A') (A") (A')
                 (A") (A') (A") (A") (A') (A') (A") (A') (A") (A')
                 (A") (A') (A') (A") (A') (A") (A') (A") (A') (A')
                 (A") (A') (A") (A") (A') (A") (A") (A') (A") (A')
                 (A") (A') (A") (A') (A') (A") (A') (A") (A') (A")
                 (A') (A") (A') (A") (A') (A") (A") (A') (A") (A')
                 (A') (A") (A') (A") (A') (A") (A') (A") (A') (A")
                 (A') (A") (A') (A") (A") (A') (A') (A") (A') (A")
                 (A') (A') (A') (A") (A') (A") (A') (A") (A") (A")
                 (A") (A') (A') (A") (A') (A") (A') (A') (A") (A')
                 (A') (A") (A') (A') (A") (A") (A') (A') (A") (A')
                 (A') (A") (A') (A") (A') (A') (A") (A') (A") (A')
                 (A") (A") (A') (A') (A") (A') (A") (A") (A') (A")
                 (A") (A") (A') (A") (A') (A") (A') (A") (A') (A')
                 (A") (A') (A") (A') (A") (A') (A') (A') (A') (A")
                 (A') (A") (A') (A") (A") (A") (A') (A') (A') (A")
                 (A") (A') (A') (A") (A') (A") (A') (A") (A") (A')
                 (A') (A') (A") (A') (A") (A') (A") (A") (A') (A')
                 (A') (A') (A") (A') (A") (A') (A") (A') (A") (A")
                 (A') (A") (A') (A") (A") (A") (A") (A') (A') (A')
                 (A") (A") (A') (A") (A') (A') (A") (A') (A") (A")
                 (A') (A") (A') (A') (A") (A") (A') (A") (A") (A')
                 (A') (A') (A") (A') (A") (A") (A') (A') (A") (A')
                 (A") (A') (A") (A') (A") (A') (A') (A") (A") (A')
                 (A') (A") (A") (A') (A") (A") (A") (A') (A") (A")
                 (A') (A') (A") (A") (A') (A") (A') (A") (A') (A')
                 (A") (A") (A') (A') (A') (A") (A') (A") (A') (A')
                 (A") (A') (A") (A') (A") (A') (A") (A') (A") (A")
                 (A') (A') (A') (A") (A") (A') (A") (A') (A") (A')
                 (A") (A") (A") (A') (A') (A") (A') (A") (A') (A')
                 (A") (A') (A') (A") (A") (A') (A") (A") (A') (A")
                 (A') (A") (A") (A') (A') (A") (A") (A') (A') (A')
                 (A") (A') (A') (A") (A") (A') (A") (A') (A') (A")
                 (A') (A") (A') (A") (A') (A') (A") (A') (A') (A")
                 (A") (A") (A') (A') (A") (A") (A') (A") (A') (A")
                 (A') (A") (A') (A") (A') (A') (A') (A") (A") (A')
                 (A") (A') (A') (A") (A') (A') (A") (A") (A') (A')
                 (A') (A") (A') (A') (A") (A") (A') (A') (A") (A')
                 (A") (A") (A") (A') (A") (A") (A') (A') (A') (A')
                 (A") (A') (A") (A") (A') (A') (A") (A") (A") (A')
                 (A") (A') (A') (A") (A') (A') (A') (A") (A') (A')
                 (A") (A") (A") (A') (A') (A") (A') (A') (A") (A')
                 (A") (A') (A") (A') (A") (A") (A') (A') (A") (A')
                 (A") (A') (A") (A') (A") (A') (A") (A") (A') (A')
                 (A') (A") (A') (A") (A') (A") (A") (A') (A") (A")
                 (A') (A') (A') (A") (A') (A") (A') (A") (A") (A')
                 (A') (A") (A') (A") (A') (A") (A') (A") (A") (A')
                 (A") (A') (A") (A") (A') (A') (A') (A") (A') (A")
                 (A') (A') (A") (A') (A') (A") (A") (A") (A') (A')
                 (A') (A") (A') (A") (A") (A') (A') (A") (A') (A")
                 (A') (A") (A') (A") (A') (A') (A") (A') (A') (A')
                 (A") (A") (A') (A") (A") (A') (A') (A') (A") (A")
                 (A") (A') (A") (A") (A') (A') (A") (A") (A') (A")
                 (A') (A') (A") (A") (A') (A') (A') (A') (A") (A")
                 (A") (A") (A') (A') (A') (A") (A') (A") (A') (A')
                 (A") (A") (A") (A") (A') (A') (A") (A') (A') (A")
                 (A') (A") (A') (A") (A') (A') (A") (A') (A") (A')
                 (A') (A") (A') (A")
 The electronic state is 1-A'.
 Alpha  occ. eigenvalues --  -10.19914 -10.19914 -10.19877 -10.19876 -10.19796
 Alpha  occ. eigenvalues --  -10.19796 -10.19748 -10.19748 -10.19014 -10.18929
 Alpha  occ. eigenvalues --  -10.18929 -10.18923 -10.18877 -10.18877 -10.18773
 Alpha  occ. eigenvalues --  -10.18773 -10.18710 -10.18710 -10.18699 -10.18699
 Alpha  occ. eigenvalues --  -10.18591 -10.18591 -10.17628 -10.17628 -10.17601
 Alpha  occ. eigenvalues --  -10.17601 -10.17494 -10.17493 -10.17420 -10.17420
 Alpha  occ. eigenvalues --  -10.16813 -10.16813 -10.16724 -10.16724 -10.16650
 Alpha  occ. eigenvalues --  -10.16650 -10.16641 -10.16595 -10.16595 -10.16184
 Alpha  occ. eigenvalues --  -10.16149 -10.16149 -10.16095 -10.16095  -0.90433
 Alpha  occ. eigenvalues --   -0.88918  -0.88023  -0.86587  -0.86582  -0.84292
 Alpha  occ. eigenvalues --   -0.83433  -0.81171  -0.80950  -0.79524  -0.79405
 Alpha  occ. eigenvalues --   -0.78468  -0.77285  -0.77061  -0.76998  -0.75219
 Alpha  occ. eigenvalues --   -0.74694  -0.73963  -0.73007  -0.71615  -0.70278
 Alpha  occ. eigenvalues --   -0.68388  -0.67857  -0.66082  -0.63718  -0.63345
 Alpha  occ. eigenvalues --   -0.62139  -0.61464  -0.61143  -0.60968  -0.60294
 Alpha  occ. eigenvalues --   -0.59844  -0.58711  -0.58669  -0.58049  -0.56448
 Alpha  occ. eigenvalues --   -0.53655  -0.53524  -0.53266  -0.51518  -0.51363
 Alpha  occ. eigenvalues --   -0.51074  -0.50599  -0.49439  -0.48464  -0.48102
 Alpha  occ. eigenvalues --   -0.47331  -0.47069  -0.46515  -0.46412  -0.46106
 Alpha  occ. eigenvalues --   -0.45941  -0.45142  -0.44855  -0.44232  -0.44084
 Alpha  occ. eigenvalues --   -0.43479  -0.42779  -0.42721  -0.42501  -0.42422
 Alpha  occ. eigenvalues --   -0.41713  -0.41634  -0.41516  -0.41320  -0.40703
 Alpha  occ. eigenvalues --   -0.40408  -0.40158  -0.40111  -0.39383  -0.39139
 Alpha  occ. eigenvalues --   -0.39076  -0.38346  -0.37585  -0.37259  -0.37232
 Alpha  occ. eigenvalues --   -0.36443  -0.35531  -0.35155  -0.35053  -0.34691
 Alpha  occ. eigenvalues --   -0.34082  -0.33976  -0.33626  -0.33359  -0.33096
 Alpha  occ. eigenvalues --   -0.32808  -0.31738  -0.30333  -0.30014  -0.29463
 Alpha  occ. eigenvalues --   -0.29240  -0.28419  -0.27234  -0.27167  -0.25440
 Alpha  occ. eigenvalues --   -0.25392  -0.23411  -0.23167  -0.21351  -0.18865
 Alpha  occ. eigenvalues --   -0.16591
 Alpha virt. eigenvalues --   -0.10839  -0.08509  -0.05584  -0.03916  -0.03257
 Alpha virt. eigenvalues --   -0.01571  -0.01365   0.00915   0.00922   0.01067
 Alpha virt. eigenvalues --    0.01438   0.03216   0.03519   0.03784   0.03977
 Alpha virt. eigenvalues --    0.03994   0.05017   0.05705   0.05798   0.06189
 Alpha virt. eigenvalues --    0.06239   0.07005   0.07053   0.07356   0.07746
 Alpha virt. eigenvalues --    0.08475   0.08737   0.09453   0.09467   0.10088
 Alpha virt. eigenvalues --    0.10659   0.10923   0.11886   0.12571   0.12963
 Alpha virt. eigenvalues --    0.13172   0.13723   0.13951   0.14848   0.15326
 Alpha virt. eigenvalues --    0.15473   0.16739   0.17341   0.17363   0.17547
 Alpha virt. eigenvalues --    0.17830   0.18077   0.18667   0.19520   0.20545
 Alpha virt. eigenvalues --    0.20963   0.21336   0.22026   0.22381   0.23552
 Alpha virt. eigenvalues --    0.23790   0.24322   0.24735   0.25254   0.25683
 Alpha virt. eigenvalues --    0.26262   0.26322   0.26555   0.26898   0.27277
 Alpha virt. eigenvalues --    0.27448   0.27700   0.28299   0.28737   0.28866
 Alpha virt. eigenvalues --    0.28885   0.29499   0.29563   0.29826   0.30163
 Alpha virt. eigenvalues --    0.30269   0.30407   0.31076   0.31353   0.32153
 Alpha virt. eigenvalues --    0.32425   0.33511   0.33932   0.34286   0.34465
 Alpha virt. eigenvalues --    0.34886   0.35384   0.35487   0.35725   0.35769
 Alpha virt. eigenvalues --    0.36060   0.36343   0.37041   0.37280   0.37568
 Alpha virt. eigenvalues --    0.37763   0.37911   0.38315   0.38918   0.38975
 Alpha virt. eigenvalues --    0.39211   0.39329   0.39676   0.39901   0.39941
 Alpha virt. eigenvalues --    0.40387   0.40713   0.40777   0.40987   0.41515
 Alpha virt. eigenvalues --    0.41568   0.42024   0.42054   0.42056   0.42403
 Alpha virt. eigenvalues --    0.42802   0.42924   0.43057   0.43252   0.43467
 Alpha virt. eigenvalues --    0.43492   0.44327   0.44528   0.45007   0.45259
 Alpha virt. eigenvalues --    0.45275   0.45423   0.45495   0.45551   0.45973
 Alpha virt. eigenvalues --    0.46058   0.46221   0.46568   0.46576   0.46667
 Alpha virt. eigenvalues --    0.47011   0.47338   0.47744   0.48585   0.48700
 Alpha virt. eigenvalues --    0.48746   0.49336   0.49337   0.49502   0.49930
 Alpha virt. eigenvalues --    0.50303   0.50392   0.50772   0.50962   0.51735
 Alpha virt. eigenvalues --    0.51780   0.52455   0.52478   0.52931   0.53154
 Alpha virt. eigenvalues --    0.53785   0.54416   0.54826   0.55400   0.56041
 Alpha virt. eigenvalues --    0.56297   0.56789   0.57439   0.57771   0.57996
 Alpha virt. eigenvalues --    0.58314   0.58598   0.59023   0.59296   0.59703
 Alpha virt. eigenvalues --    0.59980   0.60009   0.60508   0.60588   0.61363
 Alpha virt. eigenvalues --    0.61363   0.61469   0.62068   0.62388   0.62393
 Alpha virt. eigenvalues --    0.62438   0.63007   0.63029   0.63299   0.63517
 Alpha virt. eigenvalues --    0.63747   0.63866   0.63939   0.64313   0.64757
 Alpha virt. eigenvalues --    0.64797   0.65403   0.65413   0.66062   0.66816
 Alpha virt. eigenvalues --    0.67370   0.68235   0.69039   0.69251   0.69773
 Alpha virt. eigenvalues --    0.69987   0.70511   0.70756   0.71311   0.71589
 Alpha virt. eigenvalues --    0.72386   0.72860   0.73021   0.73554   0.73569
 Alpha virt. eigenvalues --    0.73799   0.73909   0.75098   0.75123   0.75532
 Alpha virt. eigenvalues --    0.76029   0.76553   0.76848   0.77384   0.78693
 Alpha virt. eigenvalues --    0.78753   0.78893   0.79145   0.79536   0.79892
 Alpha virt. eigenvalues --    0.80301   0.80558   0.80767   0.81169   0.81793
 Alpha virt. eigenvalues --    0.81953   0.82018   0.82448   0.82893   0.83720
 Alpha virt. eigenvalues --    0.83758   0.84794   0.85055   0.85221   0.85565
 Alpha virt. eigenvalues --    0.86071   0.86690   0.87635   0.87881   0.87980
 Alpha virt. eigenvalues --    0.88540   0.89672   0.90316   0.90461   0.90488
 Alpha virt. eigenvalues --    0.91204   0.91730   0.92003   0.92298   0.92638
 Alpha virt. eigenvalues --    0.93024   0.93647   0.94685   0.94942   0.95207
 Alpha virt. eigenvalues --    0.95451   0.95719   0.96187   0.96671   0.96783
 Alpha virt. eigenvalues --    0.97178   0.97649   0.97881   0.98134   0.98705
 Alpha virt. eigenvalues --    0.98971   0.99740   0.99813   1.00192   1.00624
 Alpha virt. eigenvalues --    1.00744   1.01594   1.01944   1.02621   1.02776
 Alpha virt. eigenvalues --    1.03834   1.04030   1.04182   1.04398   1.04870
 Alpha virt. eigenvalues --    1.05504   1.05708   1.06736   1.06827   1.06927
 Alpha virt. eigenvalues --    1.06968   1.07293   1.07501   1.07574   1.08385
 Alpha virt. eigenvalues --    1.08415   1.09061   1.09327   1.09773   1.09937
 Alpha virt. eigenvalues --    1.10523   1.11386   1.11426   1.11739   1.11925
 Alpha virt. eigenvalues --    1.12504   1.12716   1.12895   1.13187   1.13908
 Alpha virt. eigenvalues --    1.14350   1.14364   1.15096   1.15360   1.15788
 Alpha virt. eigenvalues --    1.16119   1.17185   1.17296   1.17379   1.18305
 Alpha virt. eigenvalues --    1.18465   1.19604   1.19896   1.20087   1.22026
 Alpha virt. eigenvalues --    1.22722   1.23973   1.24425   1.25658   1.26491
 Alpha virt. eigenvalues --    1.27275   1.27594   1.28515   1.29276   1.30534
 Alpha virt. eigenvalues --    1.32158   1.32641   1.33048   1.33197   1.35156
 Alpha virt. eigenvalues --    1.35582   1.36317   1.36886   1.38576   1.38902
 Alpha virt. eigenvalues --    1.40015   1.40496   1.41202   1.41217   1.42054
 Alpha virt. eigenvalues --    1.42380   1.42424   1.43044   1.43372   1.44645
 Alpha virt. eigenvalues --    1.44987   1.45407   1.45633   1.45641   1.46615
 Alpha virt. eigenvalues --    1.46875   1.47523   1.48109   1.48302   1.48410
 Alpha virt. eigenvalues --    1.48808   1.49201   1.49244   1.49911   1.50014
 Alpha virt. eigenvalues --    1.50509   1.50677   1.50761   1.51207   1.51279
 Alpha virt. eigenvalues --    1.51495   1.52492   1.52617   1.52988   1.54078
 Alpha virt. eigenvalues --    1.54308   1.54660   1.54829   1.55481   1.55621
 Alpha virt. eigenvalues --    1.55827   1.56435   1.56795   1.57140   1.57366
 Alpha virt. eigenvalues --    1.57731   1.58458   1.58971   1.59717   1.60163
 Alpha virt. eigenvalues --    1.60748   1.60927   1.61945   1.62260   1.62388
 Alpha virt. eigenvalues --    1.63278   1.64181   1.64323   1.64659   1.65097
 Alpha virt. eigenvalues --    1.65574   1.66517   1.67765   1.68073   1.69305
 Alpha virt. eigenvalues --    1.69959   1.70422   1.70550   1.71084   1.71503
 Alpha virt. eigenvalues --    1.71801   1.72060   1.72278   1.72533   1.72704
 Alpha virt. eigenvalues --    1.73479   1.74389   1.74398   1.75062   1.75112
 Alpha virt. eigenvalues --    1.75548   1.76148   1.76249   1.76905   1.77263
 Alpha virt. eigenvalues --    1.78751   1.79305   1.79742   1.80257   1.80538
 Alpha virt. eigenvalues --    1.80795   1.81621   1.81624   1.82066   1.82452
 Alpha virt. eigenvalues --    1.82523   1.83804   1.83812   1.84046   1.84210
 Alpha virt. eigenvalues --    1.85279   1.85645   1.85995   1.86319   1.86600
 Alpha virt. eigenvalues --    1.86627   1.86777   1.87063   1.87868   1.88732
 Alpha virt. eigenvalues --    1.88948   1.89003   1.89242   1.89824   1.89854
 Alpha virt. eigenvalues --    1.90422   1.90949   1.90961   1.91335   1.91859
 Alpha virt. eigenvalues --    1.92137   1.92221   1.92256   1.92989   1.93029
 Alpha virt. eigenvalues --    1.93841   1.94082   1.94285   1.95260   1.95339
 Alpha virt. eigenvalues --    1.95484   1.96149   1.96601   1.97377   1.97455
 Alpha virt. eigenvalues --    1.97710   1.98219   1.98849   1.99412   2.00017
 Alpha virt. eigenvalues --    2.00710   2.01342   2.01654   2.01769   2.02598
 Alpha virt. eigenvalues --    2.02899   2.03309   2.03458   2.05879   2.06381
 Alpha virt. eigenvalues --    2.07266   2.07640   2.08500   2.08859   2.09859
 Alpha virt. eigenvalues --    2.10368   2.11355   2.11403   2.12076   2.12679
 Alpha virt. eigenvalues --    2.13099   2.13999   2.14102   2.14461   2.15085
 Alpha virt. eigenvalues --    2.16231   2.16957   2.17001   2.18678   2.18927
 Alpha virt. eigenvalues --    2.19938   2.20098   2.20758   2.22035   2.22901
 Alpha virt. eigenvalues --    2.23117   2.24212   2.24308   2.24495   2.24657
 Alpha virt. eigenvalues --    2.25721   2.26279   2.26624   2.27027   2.27265
 Alpha virt. eigenvalues --    2.28075   2.28665   2.28973   2.29208   2.29705
 Alpha virt. eigenvalues --    2.30113   2.32300   2.32615   2.33419   2.34638
 Alpha virt. eigenvalues --    2.34867   2.35193   2.37471   2.38164   2.38554
 Alpha virt. eigenvalues --    2.40082   2.40731   2.41137   2.42753   2.42922
 Alpha virt. eigenvalues --    2.43312   2.43684   2.44876   2.45040   2.47135
 Alpha virt. eigenvalues --    2.47342   2.47523   2.47645   2.47820   2.50602
 Alpha virt. eigenvalues --    2.51943   2.52808   2.53355   2.53450   2.54841
 Alpha virt. eigenvalues --    2.55237   2.55753   2.56261   2.56639   2.57360
 Alpha virt. eigenvalues --    2.58025   2.58535   2.59129   2.59363   2.59681
 Alpha virt. eigenvalues --    2.60246   2.60709   2.60984   2.61333   2.61341
 Alpha virt. eigenvalues --    2.61775   2.62241   2.62338   2.63165   2.63881
 Alpha virt. eigenvalues --    2.64683   2.65039   2.65131   2.65422   2.65661
 Alpha virt. eigenvalues --    2.66256   2.66926   2.67075   2.67443   2.67863
 Alpha virt. eigenvalues --    2.68398   2.68854   2.68961   2.68997   2.69311
 Alpha virt. eigenvalues --    2.69587   2.69865   2.70503   2.70992   2.71092
 Alpha virt. eigenvalues --    2.72004   2.72065   2.72352   2.72499   2.73085
 Alpha virt. eigenvalues --    2.73845   2.74237   2.74433   2.74952   2.75305
 Alpha virt. eigenvalues --    2.75563   2.75999   2.76638   2.76972   2.77037
 Alpha virt. eigenvalues --    2.77524   2.77944   2.78758   2.78999   2.80944
 Alpha virt. eigenvalues --    2.81195   2.81402   2.81655   2.81926   2.83108
 Alpha virt. eigenvalues --    2.83513   2.83906   2.83998   2.85031   2.85560
 Alpha virt. eigenvalues --    2.86104   2.86206   2.87221   2.87446   2.87699
 Alpha virt. eigenvalues --    2.89282   2.90261   2.90713   2.91339   2.91453
 Alpha virt. eigenvalues --    2.91798   2.93122   2.93370   2.93544   2.94182
 Alpha virt. eigenvalues --    2.94414   2.95092   2.96474   2.96914   2.97174
 Alpha virt. eigenvalues --    2.97204   2.98120   2.98379   2.98522   2.98587
 Alpha virt. eigenvalues --    2.98790   3.01126   3.01668   3.04481   3.04643
 Alpha virt. eigenvalues --    3.07042   3.08137   3.09984   3.10475   3.11146
 Alpha virt. eigenvalues --    3.13883   3.14415   3.16217   3.17068   3.17317
 Alpha virt. eigenvalues --    3.17862   3.19059   3.19169   3.20035   3.20627
 Alpha virt. eigenvalues --    3.22750   3.23734   3.24274   3.26428   3.30665
 Alpha virt. eigenvalues --    3.30818   3.31819   3.32415   3.32713   3.35670
 Alpha virt. eigenvalues --    3.36085   3.36685   3.37695   3.37796   3.38354
 Alpha virt. eigenvalues --    3.38815   3.39023   3.39350   3.41013   3.41283
 Alpha virt. eigenvalues --    3.43163   3.43169   3.44242   3.44771   3.45985
 Alpha virt. eigenvalues --    3.46790   3.47261   3.48234   3.50383   3.50502
 Alpha virt. eigenvalues --    3.51643   3.51956   3.52527   3.53489   3.54397
 Alpha virt. eigenvalues --    3.57126   3.57811   3.59997   3.60323   3.61991
 Alpha virt. eigenvalues --    3.63101   3.63934   3.64185   3.65426   3.66028
 Alpha virt. eigenvalues --    3.66250   3.67489   3.69084   3.69478   3.70681
 Alpha virt. eigenvalues --    3.71541   3.71623   3.71814   3.72959   4.00686
 Alpha virt. eigenvalues --    4.00737   4.01194   4.01436   4.03276   4.03313
 Alpha virt. eigenvalues --    4.03688   4.03836   4.15921   4.16617   4.18444
 Alpha virt. eigenvalues --    4.20084   4.21093   4.21266   4.22204   4.22699
 Alpha virt. eigenvalues --    4.23004   4.25258   4.25706   4.26785   4.32640
 Alpha virt. eigenvalues --    4.33159   4.38155   4.42805   4.61883   4.65966
 Alpha virt. eigenvalues --    4.78321   4.79026   4.79706   4.81545   4.81758
 Alpha virt. eigenvalues --    4.82106   4.82347   4.83613   4.85866   4.86266
 Alpha virt. eigenvalues --   23.40928  23.45352  23.55743  23.61104  23.70028
 Alpha virt. eigenvalues --   23.74772  23.79423  23.80627  23.81035  23.82900
 Alpha virt. eigenvalues --   23.83570  23.86038  23.87542  23.88794  23.90013
 Alpha virt. eigenvalues --   23.90233  23.91189  23.92748  23.93206  23.96703
 Alpha virt. eigenvalues --   23.96764  23.98914  23.99168  24.00170  24.08900
 Alpha virt. eigenvalues --   24.09385  24.10192  24.10661  24.11453  24.12032
 Alpha virt. eigenvalues --   24.12926  24.14062  24.14195  24.15159  24.15180
 Alpha virt. eigenvalues --   24.15484  24.15808  24.16296  24.17114  24.17147
 Alpha virt. eigenvalues --   24.20089  24.20143  24.22048  24.22131
          Condensed to atoms (all electrons):
 Mulliken charges:
               1
     1  C   -0.028492
     2  C   -0.029689
     3  C   -0.047861
     4  C   -0.149384
     5  C   -0.078891
     6  C   -0.070701
     7  C    0.000833
     8  C   -0.027122
     9  C   -0.125304
    10  C   -0.013883
    11  H    0.085996
    12  H    0.079062
    13  H    0.084786
    14  H    0.095078
    15  H    0.100879
    16  H    0.098450
    17  C   -0.005105
    18  C   -0.027122
    19  C   -0.129043
    20  C   -0.013883
    21  H    0.077816
    22  H    0.083541
    23  C    0.000833
    24  C   -0.028492
    25  C   -0.125304
    26  C   -0.029689
    27  H    0.079062
    28  H    0.084786
    29  C   -0.047861
    30  C   -0.078891
    31  C   -0.149384
    32  C   -0.070701
    33  H    0.085996
    34  H    0.098450
    35  H    0.100879
    36  H    0.095078
    37  C   -0.002067
    38  C   -0.138357
    39  C   -0.065128
    40  C   -0.037587
    41  C   -0.084583
    42  C   -0.132897
    43  C   -0.034728
    44  C    0.012773
    45  C   -0.004563
    46  C   -0.149559
    47  H    0.076972
    48  H    0.068184
    49  H    0.130521
    50  H    0.133057
    51  H    0.078773
    52  H    0.089011
    53  C   -0.038152
    54  C    0.012773
    55  C   -0.011533
    56  C   -0.149559
    57  H    0.066800
    58  H    0.128519
    59  C   -0.034728
    60  C   -0.002067
    61  C   -0.004563
    62  C   -0.138357
    63  H    0.068184
    64  H    0.130521
    65  C   -0.065128
    66  C   -0.084583
    67  C   -0.037587
    68  C   -0.132897
    69  H    0.076972
    70  H    0.089011
    71  H    0.078773
    72  H    0.133057
 Sum of Mulliken charges =   0.00000
 Mulliken charges with hydrogens summed into heavy atoms:
               1
     1  C   -0.028492
     2  C   -0.029689
     3  C    0.038135
     4  C   -0.054307
     5  C    0.019559
     6  C    0.030178
     7  C    0.079895
     8  C   -0.027122
     9  C   -0.040518
    10  C   -0.013883
    17  C    0.072710
    18  C   -0.027122
    19  C   -0.045503
    20  C   -0.013883
    23  C    0.079895
    24  C   -0.028492
    25  C   -0.040518
    26  C   -0.029689
    29  C    0.038135
    30  C    0.019559
    31  C   -0.054307
    32  C    0.030178
    37  C   -0.002067
    38  C   -0.138357
    39  C    0.011843
    40  C    0.095471
    41  C    0.004429
    42  C   -0.054124
    43  C    0.033456
    44  C    0.012773
    45  C    0.125958
    46  C   -0.149559
    53  C    0.028648
    54  C    0.012773
    55  C    0.116986
    56  C   -0.149559
    59  C    0.033456
    60  C   -0.002067
    61  C    0.125958
    62  C   -0.138357
    65  C    0.011843
    66  C    0.004429
    67  C    0.095471
    68  C   -0.054124
         Mulliken charges condensed to fragments:
      1     -0.025282
      2      0.025282
 Electronic spatial extent (au):  <R**2>=          24627.7139
 Charge=              0.0000 electrons
 Dipole moment (field-independent basis, Debye):
    X=              1.1979    Y=             -2.2086    Z=              0.0000  Tot=              2.5125
 Quadrupole moment (field-independent basis, Debye-Ang):
   XX=           -245.0550   YY=           -250.9284   ZZ=           -220.2737
   XY=             -0.2647   XZ=              0.0000   YZ=              0.0000
 Traceless Quadrupole moment (field-independent basis, Debye-Ang):
   XX=             -6.3026   YY=            -12.1760   ZZ=             18.4787
   XY=             -0.2647   XZ=              0.0000   YZ=              0.0000
 Octapole moment (field-independent basis, Debye-Ang**2):
  XXX=             61.6220  YYY=            149.1269  ZZZ=              0.0000  XYY=            -10.1934
  XXY=            -67.1028  XXZ=              0.0000  XZZ=             21.7372  YZZ=            -48.0513
  YYZ=              0.0000  XYZ=              0.0000
 Hexadecapole moment (field-independent basis, Debye-Ang**3):
 XXXX=          -1989.3635 YYYY=          -9187.7983 ZZZZ=         -21083.8570 XXXY=           1195.7801
 XXXZ=              0.0000 YYYX=           1210.5374 YYYZ=              0.0000 ZZZX=              0.0000
 ZZZY=              0.0000 XXYY=          -1934.2956 XXZZ=          -4260.8570 YYZZ=          -5388.5849
 XXYZ=              0.0000 YYXZ=              0.0000 ZZXY=            355.3483
 N-N= 4.744920598620D+03 E-N=-1.342062652462D+04  KE= 1.686923246133D+03
 Symmetry A'   KE= 9.135724846380D+02
 Symmetry A"   KE= 7.733507614952D+02
 No NMR shielding tensors so no spin-rotation constants.
 Leave Link  601 at Wed Sep 27 16:59:40 2023, MaxMem=  3221225472 cpu:              51.8 elap:               1.4
 (Enter /home/center/opt/aarch64/apps/gaussian16/c01/g16/l122.exe)
 CPIOFr:  IOpCl= 0 IRwI=-1 IRwCP=  731 ICalc= -1 LCPTot=     1419224 Len1MO=     3708034 IndFrg=     1419224
 CPIOFr:  IOpCl= 0 IRwI=-1 IRwCP=  731 ICalc=  0 LCPTot=     1419224 Len1MO=     3708034 IndFrg=     5127258
 Counterpoise: doing calculation for fragment   1 using the basis set of the full-system, NewBq=T
 Leave Link  122 at Wed Sep 27 16:59:42 2023, MaxMem=  3221225472 cpu:               9.0 elap:               0.3
 (Enter /home/center/opt/aarch64/apps/gaussian16/c01/g16/l301.exe)
 Basis read from rwf:  (5D, 7F)
 No pseudopotential information found on rwf file.
 There are   528 symmetry adapted cartesian basis functions of A'  symmetry.
 There are   476 symmetry adapted cartesian basis functions of A"  symmetry.
 There are   504 symmetry adapted basis functions of A'  symmetry.
 There are   456 symmetry adapted basis functions of A"  symmetry.
   960 basis functions,  1632 primitive gaussians,  1004 cartesian basis functions
    73 alpha electrons       73 beta electrons
       nuclear repulsion energy      1494.3575059929 Hartrees.
 IExCor=  402 DFT=T Ex+Corr=B3LYP ExCW=0 ScaHFX=  0.200000
 ScaDFX=  0.800000  0.720000  1.000000  0.810000 ScalE2=  1.000000  1.000000
 IRadAn=      5 IRanWt=     -1 IRanGd=            0 ICorTp=0 IEmpDi=131
 NAtoms=   72 NActive=   72 NUniq=   40 SFac= 3.24D+00 NAtFMM=   60 NAOKFM=T Big=F
 Integral buffers will be    131072 words long.
 Raffenetti 2 integral format.
 Two-electron integral symmetry is turned on.
 R6Disp:  Grimme-D3 Dispersion energy=       -0.0303938888 Hartrees.
 Nuclear repulsion after empirical dispersion term =     1494.3271121041 Hartrees.
 No density basis found on file    718.
 Leave Link  301 at Wed Sep 27 16:59:45 2023, MaxMem=  3221225472 cpu:               2.7 elap:               0.1
 (Enter /home/center/opt/aarch64/apps/gaussian16/c01/g16/l302.exe)
 NPDir=0 NMtPBC=     1 NCelOv=     1 NCel=       1 NClECP=     1 NCelD=      1
         NCelK=      1 NCelE2=     1 NClLst=     1 CellRange=     0.0.
 One-electron integrals computed using PRISM.
 One-electron integral symmetry used in STVInt
 NBasis=   960 RedAO= T EigKep=  3.53D-05  NBF=   504   456
 NBsUse=   960 1.00D-06 EigRej= -1.00D+00 NBFU=   504   456
 Precomputing XC quadrature grid using
 IXCGrd= 4 IRadAn=           5 IRanWt=          -1 IRanGd=           0 AccXCQ= 0.00D+00.
 Generated NRdTot=       0 NPtTot=           0 NUsed=           0 NTot=          32
 NSgBfM=   990   990   990   990   990 MxSgAt=    72 MxSgA2=    72.
 Leave Link  302 at Wed Sep 27 16:59:49 2023, MaxMem=  3221225472 cpu:              59.9 elap:               1.6
 (Enter /home/center/opt/aarch64/apps/gaussian16/c01/g16/l303.exe)
 DipDrv:  MaxL=1.
 Leave Link  303 at Wed Sep 27 16:59:51 2023, MaxMem=  3221225472 cpu:              12.4 elap:               0.4
 (Enter /home/center/opt/aarch64/apps/gaussian16/c01/g16/l401.exe)
 ExpMin= 1.03D-01 ExpMax= 4.56D+03 ExpMxC= 6.82D+02 IAcc=3 IRadAn=         5 AccDes= 0.00D+00
 Harris functional with IExCor=  402 and IRadAn=       5 diagonalized for initial guess.
 HarFok:  IExCor=  402 AccDes= 0.00D+00 IRadAn=         5 IDoV= 1 UseB2=F ITyADJ=14
 ICtDFT=  3500011 ScaDFX=  1.000000  1.000000  1.000000  1.000000
 FoFCou: FMM=F IPFlag=           0 FMFlag=      100000 FMFlg1=        2000
         NFxFlg=           0 DoJE=T BraDBF=F KetDBF=T FulRan=T
         wScrn=  0.000000 ICntrl=       500 IOpCl=  0 I1Cent=   200000004 NGrid=           0
         NMat0=    1 NMatS0=      1 NMatT0=    0 NMatD0=    1 NMtDS0=    0 NMtDT0=    0
 Petite list used in FoFCou.
 Harris En= -847.067481674046    
 JPrj=0 DoOrth=F DoCkMO=F.
 Initial guess orbital symmetries:
       Occupied  (A") (A') (A") (A') (A") (A') (A") (A') (A") (A')
                 (A") (A') (A') (A') (A") (A') (A") (A') (A") (A')
                 (A') (A") (A') (A") (A') (A") (A') (A') (A") (A')
                 (A") (A") (A') (A') (A") (A") (A') (A") (A') (A')
                 (A') (A") (A") (A") (A') (A') (A") (A') (A') (A")
                 (A') (A") (A") (A') (A') (A") (A') (A") (A') (A")
                 (A") (A') (A') (A") (A') (A") (A') (A") (A') (A')
                 (A") (A") (A')
       Virtual   (A') (A") (A") (A') (A') (A") (A') (A") (A') (A")
                 (A') (A') (A") (A') (A") (A') (A') (A") (A') (A")
                 (A") (A") (A') (A') (A") (A') (A') (A') (A') (A")
                 (A') (A") (A") (A') (A') (A") (A') (A") (A") (A')
                 (A') (A") (A") (A') (A") (A') (A") (A') (A') (A")
                 (A') (A") (A') (A') (A") (A') (A") (A") (A') (A')
                 (A") (A') (A') (A') (A") (A") (A") (A") (A') (A")
                 (A') (A') (A") (A') (A') (A") (A') (A') (A') (A")
                 (A") (A') (A") (A') (A') (A") (A') (A") (A") (A')
                 (A") (A") (A") (A') (A') (A') (A") (A') (A") (A')
                 (A') (A") (A') (A") (A') (A') (A') (A') (A") (A")
                 (A") (A") (A') (A") (A") (A') (A') (A") (A') (A")
                 (A') (A") (A") (A') (A') (A') (A') (A") (A') (A")
                 (A') (A') (A") (A') (A") (A') (A") (A") (A') (A")
                 (A') (A') (A') (A") (A') (A") (A") (A') (A") (A')
                 (A") (A') (A") (A') (A") (A') (A") (A') (A') (A")
                 (A") (A') (A") (A') (A") (A') (A') (A") (A') (A")
                 (A') (A") (A') (A") (A') (A") (A') (A") (A') (A")
                 (A') (A") (A') (A') (A") (A') (A") (A") (A') (A')
                 (A") (A') (A') (A') (A") (A") (A") (A') (A') (A")
                 (A") (A') (A") (A') (A') (A") (A') (A") (A') (A")
                 (A') (A") (A") (A') (A") (A') (A") (A') (A') (A")
                 (A') (A") (A") (A') (A") (A') (A') (A') (A") (A')
                 (A") (A') (A") (A') (A") (A") (A') (A") (A') (A")
                 (A') (A") (A') (A') (A") (A') (A") (A') (A") (A")
                 (A') (A') (A') (A") (A') (A") (A") (A") (A') (A')
                 (A") (A') (A") (A') (A') (A") (A') (A") (A') (A')
                 (A") (A") (A') (A") (A") (A') (A') (A") (A") (A')
                 (A') (A") (A') (A") (A') (A") (A') (A") (A') (A')
                 (A") (A') (A') (A") (A") (A') (A') (A") (A') (A')
                 (A") (A') (A") (A') (A") (A") (A') (A") (A') (A")
                 (A") (A') (A') (A") (A") (A') (A') (A") (A") (A')
                 (A") (A') (A') (A") (A') (A') (A") (A') (A') (A")
                 (A') (A') (A") (A') (A') (A") (A") (A") (A') (A")
                 (A") (A') (A") (A") (A') (A') (A') (A") (A') (A')
                 (A") (A') (A") (A') (A") (A') (A') (A') (A") (A')
                 (A') (A") (A") (A') (A") (A') (A") (A") (A') (A")
                 (A') (A") (A") (A') (A") (A') (A") (A') (A") (A')
                 (A") (A') (A") (A") (A') (A') (A') (A") (A") (A')
                 (A') (A") (A') (A") (A') (A') (A") (A') (A") (A")
                 (A') (A") (A") (A') (A") (A') (A') (A") (A') (A')
                 (A") (A") (A') (A') (A") (A') (A") (A') (A") (A")
                 (A') (A') (A") (A") (A") (A') (A') (A") (A') (A")
                 (A") (A') (A') (A') (A') (A") (A") (A') (A") (A')
                 (A') (A') (A") (A") (A") (A') (A') (A') (A") (A")
                 (A") (A') (A') (A') (A") (A") (A') (A") (A') (A")
                 (A') (A") (A') (A") (A') (A") (A') (A') (A") (A")
                 (A') (A") (A') (A") (A") (A') (A") (A') (A") (A')
                 (A") (A') (A") (A') (A') (A") (A') (A") (A") (A')
                 (A") (A') (A') (A') (A") (A") (A") (A') (A") (A')
                 (A') (A") (A") (A') (A') (A') (A") (A') (A") (A")
                 (A') (A") (A") (A') (A") (A') (A") (A') (A') (A')
                 (A") (A") (A') (A") (A') (A') (A") (A") (A') (A")
                 (A') (A') (A') (A") (A') (A") (A") (A') (A') (A")
                 (A') (A') (A") (A') (A") (A") (A') (A') (A") (A')
                 (A") (A') (A") (A") (A') (A") (A') (A") (A') (A')
                 (A') (A') (A") (A") (A") (A") (A') (A') (A") (A')
                 (A") (A') (A') (A") (A') (A') (A") (A') (A") (A")
                 (A") (A') (A") (A') (A") (A') (A') (A") (A') (A')
                 (A") (A') (A") (A') (A") (A') (A") (A') (A") (A")
                 (A') (A") (A') (A') (A") (A") (A') (A") (A') (A')
                 (A') (A") (A") (A') (A') (A") (A') (A") (A') (A')
                 (A") (A") (A') (A") (A') (A") (A") (A') (A") (A")
                 (A') (A") (A") (A') (A') (A') (A") (A') (A') (A")
                 (A') (A") (A') (A") (A') (A") (A') (A") (A") (A')
                 (A") (A') (A') (A") (A") (A') (A") (A') (A") (A')
                 (A") (A') (A") (A") (A") (A') (A') (A') (A") (A')
                 (A') (A") (A') (A") (A") (A') (A') (A") (A') (A')
                 (A") (A') (A') (A") (A") (A') (A') (A") (A') (A")
                 (A') (A") (A') (A') (A") (A") (A") (A') (A') (A')
                 (A") (A") (A') (A") (A') (A') (A") (A') (A") (A')
[...]
                 (A') (A') (A") (A") (A') (A") (A') (A") (A') (A')
                 (A") (A") (A')
       Virtual   (A') (A") (A") (A') (A') (A") (A') (A') (A') (A")
                 (A") (A') (A") (A') (A") (A') (A") (A") (A') (A")
                 (A') (A') (A") (A') (A") (A') (A') (A') (A') (A")
                 (A") (A") (A") (A') (A') (A") (A') (A") (A') (A")
                 (A') (A') (A') (A") (A') (A") (A") (A') (A') (A")
                 (A") (A') (A') (A") (A') (A") (A") (A") (A') (A")
                 (A') (A') (A') (A') (A') (A") (A') (A') (A") (A")
                 (A") (A') (A') (A') (A") (A') (A") (A") (A") (A')
                 (A') (A") (A') (A") (A") (A') (A") (A') (A') (A')
                 (A') (A') (A") (A") (A") (A") (A') (A") (A') (A")
                 (A') (A') (A') (A") (A") (A') (A') (A") (A') (A")
                 (A') (A") (A") (A") (A') (A') (A") (A') (A') (A")
                 (A') (A") (A") (A') (A') (A") (A') (A") (A') (A")
                 (A") (A') (A') (A') (A') (A") (A") (A") (A') (A")
                 (A') (A") (A') (A") (A') (A') (A") (A") (A') (A")
                 (A') (A") (A') (A") (A') (A') (A") (A') (A") (A")
                 (A') (A") (A') (A') (A") (A") (A') (A") (A') (A")
                 (A') (A') (A") (A') (A') (A") (A") (A') (A') (A')
                 (A") (A') (A") (A") (A") (A") (A') (A") (A') (A')
                 (A") (A') (A") (A') (A') (A') (A") (A') (A") (A')
                 (A") (A") (A') (A') (A") (A") (A') (A') (A") (A')
                 (A') (A') (A') (A") (A") (A") (A") (A') (A') (A")
                 (A') (A") (A") (A') (A") (A') (A") (A') (A") (A')
                 (A") (A') (A') (A") (A') (A") (A") (A') (A') (A")
                 (A") (A') (A') (A") (A") (A') (A") (A") (A") (A')
                 (A') (A") (A') (A') (A") (A') (A') (A") (A') (A")
                 (A") (A') (A") (A') (A') (A") (A") (A") (A') (A')
                 (A") (A') (A') (A") (A") (A") (A') (A") (A') (A')
                 (A") (A') (A") (A') (A") (A') (A') (A') (A") (A')
                 (A") (A") (A') (A') (A") (A") (A') (A") (A') (A")
                 (A') (A') (A") (A") (A') (A') (A") (A') (A') (A')
                 (A") (A") (A') (A") (A') (A") (A') (A") (A') (A')
                 (A') (A") (A") (A") (A') (A") (A') (A') (A') (A")
                 (A") (A') (A") (A') (A') (A") (A') (A") (A") (A')
                 (A') (A") (A') (A") (A") (A') (A') (A") (A') (A")
                 (A') (A") (A') (A") (A') (A") (A") (A') (A') (A")
                 (A') (A") (A') (A') (A") (A") (A') (A") (A') (A')
                 (A") (A') (A") (A') (A') (A") (A') (A") (A') (A")
                 (A") (A') (A") (A') (A") (A') (A") (A') (A') (A")
                 (A") (A') (A") (A') (A') (A") (A") (A') (A') (A")
                 (A') (A") (A') (A") (A') (A') (A")
 The electronic state is 1-A'.
 Alpha  occ. eigenvalues --  -10.18931 -10.18930 -10.18896 -10.18895 -10.18848
 Alpha  occ. eigenvalues --  -10.18848 -10.18813 -10.18813 -10.17956 -10.17955
 Alpha  occ. eigenvalues --  -10.17920 -10.17920 -10.17919 -10.17919 -10.17875
 Alpha  occ. eigenvalues --  -10.17875 -10.17863 -10.17863 -10.17808 -10.17808
 Alpha  occ. eigenvalues --  -10.17781 -10.17781  -0.89340  -0.87865  -0.85549
 Alpha  occ. eigenvalues --   -0.82415  -0.79820  -0.78521  -0.78314  -0.75991
 Alpha  occ. eigenvalues --   -0.74255  -0.72901  -0.69196  -0.67344  -0.62728
 Alpha  occ. eigenvalues --   -0.62370  -0.61108  -0.59964  -0.59301  -0.57689
 Alpha  occ. eigenvalues --   -0.52709  -0.52573  -0.52293  -0.49654  -0.48513
 Alpha  occ. eigenvalues --   -0.47160  -0.46110  -0.45590  -0.45476  -0.43928
 Alpha  occ. eigenvalues --   -0.43182  -0.42578  -0.41808  -0.41572  -0.41386
 Alpha  occ. eigenvalues --   -0.40692  -0.40405  -0.39579  -0.38193  -0.36732
 Alpha  occ. eigenvalues --   -0.36341  -0.35550  -0.34094  -0.33809  -0.33058
 Alpha  occ. eigenvalues --   -0.32930  -0.31612  -0.29665  -0.28406  -0.26623
 Alpha  occ. eigenvalues --   -0.24364  -0.22582  -0.17855
 Alpha virt. eigenvalues --   -0.09755  -0.04464  -0.02747  -0.00147   0.02073
 Alpha virt. eigenvalues --    0.02370   0.03189   0.04746   0.04859   0.04871
 Alpha virt. eigenvalues --    0.06161   0.06575   0.07968   0.08162   0.08303
 Alpha virt. eigenvalues --    0.09607   0.10049   0.11524   0.11533   0.13796
 Alpha virt. eigenvalues --    0.14111   0.14670   0.18092   0.18194   0.18832
 Alpha virt. eigenvalues --    0.19391   0.22815   0.23002   0.24379   0.24942
 Alpha virt. eigenvalues --    0.25581   0.27528   0.27575   0.28012   0.28228
 Alpha virt. eigenvalues --    0.28947   0.29389   0.30158   0.30759   0.31175
 Alpha virt. eigenvalues --    0.32897   0.34528   0.36420   0.36484   0.37134
 Alpha virt. eigenvalues --    0.37503   0.37629   0.37651   0.38116   0.38643
 Alpha virt. eigenvalues --    0.39094   0.39439   0.39739   0.40236   0.40435
 Alpha virt. eigenvalues --    0.41918   0.41926   0.41940   0.42289   0.42318
 Alpha virt. eigenvalues --    0.42643   0.43748   0.44233   0.44835   0.45295
 Alpha virt. eigenvalues --    0.45683   0.45924   0.45953   0.46379   0.47165
 Alpha virt. eigenvalues --    0.47805   0.47809   0.47978   0.48073   0.48231
 Alpha virt. eigenvalues --    0.48568   0.49414   0.49572   0.51377   0.51846
 Alpha virt. eigenvalues --    0.52370   0.53118   0.53671   0.55998   0.57923
 Alpha virt. eigenvalues --    0.57955   0.59048   0.59201   0.60433   0.60585
 Alpha virt. eigenvalues --    0.60693   0.61101   0.61690   0.62105   0.62173
 Alpha virt. eigenvalues --    0.63432   0.63481   0.64458   0.64535   0.65533
 Alpha virt. eigenvalues --    0.66693   0.66910   0.67680   0.67724   0.70658
 Alpha virt. eigenvalues --    0.71305   0.71405   0.71494   0.72803   0.73989
 Alpha virt. eigenvalues --    0.75405   0.75894   0.76289   0.77801   0.77809
 Alpha virt. eigenvalues --    0.78943   0.79160   0.79723   0.81162   0.81509
 Alpha virt. eigenvalues --    0.82881   0.83001   0.84383   0.84585   0.84713
 Alpha virt. eigenvalues --    0.88087   0.89711   0.89765   0.91536   0.92083
 Alpha virt. eigenvalues --    0.92578   0.93749   0.95806   0.96107   0.96442
 Alpha virt. eigenvalues --    0.96590   0.96905   0.98547   1.00356   1.01118
 Alpha virt. eigenvalues --    1.02686   1.03027   1.03354   1.04405   1.05244
 Alpha virt. eigenvalues --    1.05439   1.05525   1.05950   1.07395   1.07547
 Alpha virt. eigenvalues --    1.07686   1.08438   1.10005   1.10036   1.12070
 Alpha virt. eigenvalues --    1.13223   1.13544   1.13650   1.14526   1.15341
 Alpha virt. eigenvalues --    1.17432   1.18332   1.19657   1.20432   1.23014
 Alpha virt. eigenvalues --    1.23618   1.27884   1.28234   1.30579   1.32076
 Alpha virt. eigenvalues --    1.32743   1.34942   1.37641   1.39236   1.39896
 Alpha virt. eigenvalues --    1.39942   1.40725   1.42751   1.43476   1.43554
 Alpha virt. eigenvalues --    1.45057   1.46086   1.47119   1.47538   1.48841
 Alpha virt. eigenvalues --    1.49280   1.49417   1.50258   1.50674   1.52268
 Alpha virt. eigenvalues --    1.52650   1.53402   1.54331   1.54372   1.54781
 Alpha virt. eigenvalues --    1.54807   1.57107   1.57715   1.58569   1.59882
 Alpha virt. eigenvalues --    1.60106   1.62692   1.63242   1.64856   1.66641
 Alpha virt. eigenvalues --    1.69292   1.69605   1.69709   1.70649   1.71804
 Alpha virt. eigenvalues --    1.72459   1.72619   1.73075   1.73096   1.73680
 Alpha virt. eigenvalues --    1.77494   1.78519   1.79157   1.79419   1.80511
 Alpha virt. eigenvalues --    1.81616   1.81887   1.82058   1.83581   1.84039
 Alpha virt. eigenvalues --    1.85487   1.87392   1.87456   1.87577   1.87728
 Alpha virt. eigenvalues --    1.88131   1.88613   1.90743   1.91387   1.92190
 Alpha virt. eigenvalues --    1.92193   1.92572   1.92670   1.93517   1.93938
 Alpha virt. eigenvalues --    1.94544   1.95483   1.97262   1.99429   2.00088
 Alpha virt. eigenvalues --    2.00602   2.01362   2.03019   2.05757   2.08293
 Alpha virt. eigenvalues --    2.09111   2.09256   2.09792   2.12192   2.14098
 Alpha virt. eigenvalues --    2.15528   2.15584   2.17200   2.19751   2.20833
 Alpha virt. eigenvalues --    2.21576   2.22525   2.23381   2.24503   2.26441
 Alpha virt. eigenvalues --    2.26972   2.27242   2.27719   2.28046   2.29391
 Alpha virt. eigenvalues --    2.33301   2.35725   2.39155   2.39384   2.40817
 Alpha virt. eigenvalues --    2.42649   2.43076   2.45776   2.45994   2.46870
 Alpha virt. eigenvalues --    2.51623   2.51954   2.53354   2.53485   2.55138
 Alpha virt. eigenvalues --    2.56159   2.58701   2.58838   2.59764   2.59776
 Alpha virt. eigenvalues --    2.60682   2.61147   2.61719   2.62222   2.63349
 Alpha virt. eigenvalues --    2.63999   2.64478   2.66054   2.66794   2.67121
 Alpha virt. eigenvalues --    2.67374   2.68356   2.68872   2.68876   2.69372
 Alpha virt. eigenvalues --    2.69557   2.69907   2.70083   2.70281   2.73482
 Alpha virt. eigenvalues --    2.74771   2.74836   2.76066   2.77101   2.77577
 Alpha virt. eigenvalues --    2.78232   2.78455   2.78850   2.80822   2.82359
 Alpha virt. eigenvalues --    2.85535   2.85993   2.86737   2.87294   2.90966
 Alpha virt. eigenvalues --    2.91783   2.92195   2.93676   2.95232   2.95887
 Alpha virt. eigenvalues --    2.99270   2.99858   3.03165   3.05604   3.06852
 Alpha virt. eigenvalues --    3.07371   3.15988   3.16029   3.16647   3.19843
 Alpha virt. eigenvalues --    3.20017   3.23601   3.29134   3.29680   3.31610
 Alpha virt. eigenvalues --    3.35095   3.35458   3.35677   3.35858   3.38023
 Alpha virt. eigenvalues --    3.39887   3.41413   3.44960   3.45362   3.47993
 Alpha virt. eigenvalues --    3.48278   3.50401   3.53073   3.57439   3.58649
 Alpha virt. eigenvalues --    3.61466   3.62620   3.63208   3.63698   3.65910
 Alpha virt. eigenvalues --    3.67534   3.67678   4.00384   4.00442   4.01859
 Alpha virt. eigenvalues --    4.02182   4.16133   4.16678   4.17360   4.21240
 Alpha virt. eigenvalues --    4.22396   4.22517   4.25488   4.38492   4.62290
 Alpha virt. eigenvalues --    4.79179   4.79740   4.80562   4.82562   4.83014
 Alpha virt. eigenvalues --   23.39176  23.54541  23.69085  23.77378  23.80419
 Alpha virt. eigenvalues --   23.81537  23.86099  23.89067  23.89154  23.92210
 Alpha virt. eigenvalues --   23.97563  23.98365  24.09049  24.09932  24.10529
 Alpha virt. eigenvalues --   24.12220  24.13779  24.14375  24.15775  24.15810
 Alpha virt. eigenvalues --   24.20452  24.20497
          Condensed to atoms (all electrons):
 Mulliken charges:
               1
     1  C    0.000000
     2  C    0.000000
     3  C    0.000000
     4  C    0.000000
     5  C    0.000000
     6  C    0.000000
     7  C    0.000000
     8  C    0.000000
     9  C    0.000000
    10  C    0.000000
    11  H    0.000000
    12  H    0.000000
    13  H    0.000000
    14  H    0.000000
    15  H    0.000000
    16  H    0.000000
    17  C    0.000000
    18  C    0.000000
    19  C    0.000000
    20  C    0.000000
    21  H    0.000000
    22  H    0.000000
    23  C    0.000000
    24  C    0.000000
    25  C    0.000000
    26  C    0.000000
    27  H    0.000000
    28  H    0.000000
    29  C    0.000000
    30  C    0.000000
    31  C    0.000000
    32  C    0.000000
    33  H    0.000000
    34  H    0.000000
    35  H    0.000000
    36  H    0.000000
    37  C   -0.059168
    38  C   -0.059168
    39  C   -0.055977
    40  C   -0.055977
    41  C   -0.092198
    42  C   -0.092198
    43  C   -0.016525
    44  C   -0.054498
    45  C   -0.016525
    46  C   -0.054498
    47  H    0.082122
    48  H    0.074853
    49  H    0.074853
    50  H    0.082122
    51  H    0.094847
    52  H    0.094847
    53  C   -0.020341
    54  C   -0.054498
    55  C   -0.020341
    56  C   -0.054498
    57  H    0.073428
    58  H    0.073428
    59  C   -0.016525
    60  C   -0.059168
    61  C   -0.016525
    62  C   -0.059168
    63  H    0.074853
    64  H    0.074853
    65  C   -0.055977
    66  C   -0.092198
    67  C   -0.055977
    68  C   -0.092198
    69  H    0.082122
    70  H    0.094847
    71  H    0.094847
    72  H    0.082122
 Sum of Mulliken charges =   0.00000
 Mulliken charges with hydrogens summed into heavy atoms:
               1
     1  C    0.000000
     2  C    0.000000
     3  C    0.000000
     4  C    0.000000
     5  C    0.000000
     6  C    0.000000
     7  C    0.000000
     8  C    0.000000
     9  C    0.000000
    10  C    0.000000
    17  C    0.000000
    18  C    0.000000
    19  C    0.000000
    20  C    0.000000
    23  C    0.000000
    24  C    0.000000
    25  C    0.000000
    26  C    0.000000
    29  C    0.000000
    30  C    0.000000
    31  C    0.000000
    32  C    0.000000
    37  C   -0.059168
    38  C   -0.059168
    39  C    0.026144
    40  C    0.026144
    41  C    0.002649
    42  C    0.002649
    43  C    0.058328
    44  C   -0.054498
    45  C    0.058328
    46  C   -0.054498
    53  C    0.053087
    54  C   -0.054498
    55  C    0.053087
    56  C   -0.054498
    59  C    0.058328
    60  C   -0.059168
    61  C    0.058328
    62  C   -0.059168
    65  C    0.026144
    66  C    0.002649
    67  C    0.026144
    68  C    0.002649
         Mulliken charges condensed to fragments:
      1      0.000000
      2      0.000000
 Electronic spatial extent (au):  <R**2>=          18715.5297
 Charge=              0.0000 electrons
 Dipole moment (field-independent basis, Debye):
    X=              0.0000    Y=              0.0000    Z=              0.0000  Tot=              0.0000
 Quadrupole moment (field-independent basis, Debye-Ang):
   XX=           -136.3921   YY=           -110.7480   ZZ=           -109.0115
   XY=              0.0000   XZ=              0.0000   YZ=              0.0000
 Traceless Quadrupole moment (field-independent basis, Debye-Ang):
   XX=            -17.6749   YY=              7.9692   ZZ=              9.7057
   XY=              0.0000   XZ=              0.0000   YZ=              0.0000
 Octapole moment (field-independent basis, Debye-Ang**2):
  XXX=           1229.6578  YYY=            998.4612  ZZZ=              0.0000  XYY=            332.8204
  XXY=            409.8859  XXZ=              0.0000  XZZ=            327.6017  YZZ=            327.6017
  YYZ=              0.0000  XYZ=              0.0000
 Hexadecapole moment (field-independent basis, Debye-Ang**3):
 XXXX=          -7545.1486 YYYY=          -7117.8757 ZZZZ=         -10461.4324 XXXY=          -3695.3723
 XXXZ=              0.0000 YYYX=          -3000.5795 YYYZ=              0.0000 ZZZX=              0.0000
 ZZZY=              0.0000 XXYY=          -2488.3993 XXZZ=          -3192.4419 YYZZ=          -2953.7243
 XXYZ=              0.0000 YYXZ=              0.0000 ZZXY=           -984.5099
 N-N= 1.494327111324D+03 E-N=-4.953709174165D+03  KE= 8.433374904716D+02
 Symmetry A'   KE= 4.567052305305D+02
 Symmetry A"   KE= 3.866322599410D+02
 No NMR shielding tensors so no spin-rotation constants.
 Leave Link  601 at Wed Sep 27 17:17:46 2023, MaxMem=  3221225472 cpu:              18.9 elap:               0.5
 (Enter /home/center/opt/aarch64/apps/gaussian16/c01/g16/l122.exe)
 CPIOFr:  IOpCl= 0 IRwI=-1 IRwCP=  731 ICalc=  4 LCPTot=     1419224 Len1MO=     3708034 IndFrg=    19959394
 Restoring MOs from calculation   1 to rwf.
 CPIOFr:  IOpCl= 0 IRwI=-2 IRwCP=  731 ICalc=  0 LCPTot=     1419224 Len1MO=     3708034 IndFrg=     5127258
 Counterpoise corrected energy =   -1694.040972368313
                   BSSE energy =       0.000002575161
              sum of fragments =   -1694.039683044254
           complexation energy =      -0.81 kcal/mole (raw)
           complexation energy =      -0.81 kcal/mole (corrected)
 Leave Link  122 at Wed Sep 27 17:17:48 2023, MaxMem=  3221225472 cpu:               8.3 elap:               0.3
 (Enter /home/center/opt/aarch64/apps/gaussian16/c01/g16/l9999.exe)

 Test job not archived.
 1\1\GINC-FX0553\SP\RB3LYP\6-311G(d,p)\C44H28\Z40145W\27-Sep-2023\0\\#P
  TEST b3lyp/6-311G** EmpiricalDispersion=GD3 counterpoise=2\\pentacene
 _A1=0_A2=0_A3=45_p2\\0,1\C,0,-0.5039478476,0.5239478476,-3.6612755801\
 C,0,0.5239480325,-0.5039480325,-3.6612755629\C,0,-0.9861248463,1.00612
 48463,-4.9235927708\C,0,1.0061250889,-0.9861250889,-4.9235926697\C,0,-
 0.4963213507,0.5163213507,-6.096356521\C,0,0.5163216812,-0.4963216812,
 -6.0963564796\C,0,-0.9844684311,1.0044684311,-2.4533174875\C,0,-0.5044
 88426,0.524488426,-1.2140288145\C,0,1.0044685359,-0.9844685359,-2.4533
 173917\C,0,0.5244885437,-0.5044885437,-1.2140288362\H,0,-1.7533559667,
 1.7733559667,-4.9232600459\H,0,-1.7521866813,1.7721866813,-2.453928581
 5\H,0,1.7721859268,-1.7521859268,-2.4539284818\H,0,1.7733558421,-1.753
 3558421,-4.9232597785\H,0,0.8905568758,-0.8705568758,-7.0425276922\H,0
 ,-0.8705565046,0.8905565046,-7.042527775\C,0,-0.9848184961,1.004818496
 1,0.0099998782\C,0,-0.5044883957,0.5244883957,1.2340295553\C,0,1.00481
 85643,-0.9848185643,0.0099998696\C,0,0.5244885146,-0.5044885146,1.2340
 295261\H,0,-1.7524699697,1.7724699697,0.0099999205\H,0,1.772468921,-1.
 752468921,0.0099999641\C,0,-0.9844683048,1.0044683048,2.4733171385\C,0
 ,-0.5039477114,0.5239477114,3.681276331\C,0,1.0044684211,-0.9844684211
 ,2.4733170835\C,0,0.5239479079,-0.5039479079,3.6812763217\H,0,-1.75218
 65527,1.7721865527,2.4739285326\H,0,1.7721858092,-1.7521858092,2.47392
 83796\C,0,-0.9861245177,1.0061245177,4.9435920588\C,0,-0.4963209372,0.
 5163209372,6.116356633\C,0,1.0061247659,-0.9861247659,4.9435919377\C,0
 ,0.5163212637,-0.4963212637,6.1163566075\H,0,-1.7533556504,1.773355650
 4,4.9432601504\H,0,-0.8705567426,0.8905567426,7.0625274368\H,0,0.89055
 70967,-0.8705570967,7.0625272142\H,0,1.7733555414,-1.7533555414,4.9432
 599297\C,0,7.9960521524,0.5239478476,-3.6612755801\C,0,9.0239480325,-0
 .5039480325,-3.6612755629\C,0,7.5138751537,1.0061248463,-4.9235927708\
 C,0,9.5061250889,-0.9861250889,-4.9235926697\C,0,8.0036786493,0.516321
 3507,-6.096356521\C,0,9.0163216812,-0.4963216812,-6.0963564796\C,0,7.5
 155315689,1.0044684311,-2.4533174875\C,0,7.995511574,0.524488426,-1.21
 40288145\C,0,9.5044685359,-0.9844685359,-2.4533173917\C,0,9.0244885437
 ,-0.5044885437,-1.2140288362\H,0,6.7466440333,1.7733559667,-4.92326004
 59\H,0,6.7478133187,1.7721866813,-2.4539285815\H,0,10.2721859268,-1.75
 21859268,-2.4539284818\H,0,10.2733558421,-1.7533558421,-4.9232597785\H
 ,0,9.3905568758,-0.8705568758,-7.0425276922\H,0,7.6294434954,0.8905565
 046,-7.042527775\C,0,7.5151815039,1.0048184961,0.0099998782\C,0,7.9955
 116043,0.5244883957,1.2340295553\C,0,9.5048185643,-0.9848185643,0.0099
 998696\C,0,9.0244885146,-0.5044885146,1.2340295261\H,0,6.7475300303,1.
 7724699697,0.0099999205\H,0,10.272468921,-1.752468921,0.0099999641\C,0
 ,7.5155316952,1.0044683048,2.4733171385\C,0,7.9960522886,0.5239477114,
 3.681276331\C,0,9.5044684211,-0.9844684211,2.4733170835\C,0,9.02394790
 79,-0.5039479079,3.6812763217\H,0,6.7478134473,1.7721865527,2.47392853
 26\H,0,10.2721858092,-1.7521858092,2.4739283796\C,0,7.5138754823,1.006
 1245177,4.9435920588\C,0,8.0036790628,0.5163209372,6.116356633\C,0,9.5
 061247659,-0.9861247659,4.9435919377\C,0,9.0163212637,-0.4963212637,6.
 1163566075\H,0,6.7466443496,1.7733556504,4.9432601504\H,0,7.6294432574
 ,0.8905567426,7.0625274368\H,0,9.3905570967,-0.8705570967,7.0625272142
 \H,0,10.2733555414,-1.7533555414,4.9432599297\\Version=Fujitsu-Arm-G16
 RevC.01\State=1-A'\HF=-847.0198415\RMSD=3.183e-09\Dipole=0.0000158,-0.
 0000156,0.\Quadrupole=-7.7985625,-6.6016502,14.4002128,-18.4082435,0.,
 0.\PG=CS [SG(C4H4),X(C40H24)]\\@


 CHEMISTRY BEGAN BY SAYING IT WOULD CHANGE THE BASER
 METALS INTO GOLD.  BY NOT DOING THAT IT HAS DONE MUCH
 GREATER THINGS.  --  RALPH WALDO EMERSON
 Job cpu time:       0 days  2 hours 40 minutes  7.6 seconds.
 Elapsed time:       0 days  0 hours  4 minutes 13.9 seconds.
 File lengths (MBytes):  RWF=    718 Int=      0 D2E=      0 Chk=    208 Scr=      1
 Normal termination of Gaussian 16 at Wed Sep 27 17:17:54 2023.
