 Entering Gaussian System, Link 0=g16
 Initial command:
 /home/center/opt/aarch64/apps/gaussian16/c01/g16/l1.exe "/data/tmp/Gtmp/1006989/Gau-50.inp" -scrdir="/data/tmp/Gtmp/1006989/"
 Entering Link 1 = /home/center/opt/aarch64/apps/gaussian16/c01/g16/l1.exe PID=        51.
  
 Copyright (c) 1988-2019, Gaussian, Inc.  All Rights Reserved.
  
 This is part of the Gaussian(R) 16 program.  It is based on
 the Gaussian(R) 09 system (copyright 2009, Gaussian, Inc.),
 the Gaussian(R) 03 system (copyright 2003, Gaussian, Inc.),
 the Gaussian(R) 98 system (copyright 1998, Gaussian, Inc.),
 the Gaussian(R) 94 system (copyright 1995, Gaussian, Inc.),
 the Gaussian 92(TM) system (copyright 1992, Gaussian, Inc.),
 the Gaussian 90(TM) system (copyright 1990, Gaussian, Inc.),
 the Gaussian 88(TM) system (copyright 1988, Gaussian, Inc.),
 the Gaussian 86(TM) system (copyright 1986, Carnegie Mellon
 University), and the Gaussian 82(TM) system (copyright 1983,
 Carnegie Mellon University). Gaussian is a federally registered
 trademark of Gaussian, Inc.
  
 This software contains proprietary and confidential information,
 including trade secrets, belonging to Gaussian, Inc.
  
 This software is provided under written license and may be
 used, copied, transmitted, or stored only in accord with that
 written license.
  
 The following legend is applicable only to US Government
 contracts under FAR:
  
                    RESTRICTED RIGHTS LEGEND
  
 Use, reproduction and disclosure by the US Government is
 subject to restrictions as set forth in subparagraphs (a)
 and (c) of the Commercial Computer Software - Restricted
 Rights clause in FAR 52.227-19.
  
 Gaussian, Inc.
 340 Quinnipiac St., Bldg. 40, Wallingford CT 06492
  
  
 ---------------------------------------------------------------
 Warning -- This program may not be used in any manner that
 competes with the business of Gaussian, Inc. or will provide
 assistance to any competitor of Gaussian, Inc.  The licensee
 of this program is prohibited from giving any competitor of
 Gaussian, Inc. access to this program.  By using this program,
 the user acknowledges that Gaussian, Inc. is engaged in the
 business of creating and licensing software in the field of
 computational chemistry and represents and warrants to the
 licensee that it is not a competitor of Gaussian, Inc. and that
 it will not use this program in any manner prohibited above.
 ---------------------------------------------------------------
  

 Cite this work as:
 Gaussian 16, Revision C.01,
 M. J. Frisch, G. W. Trucks, H. B. Schlegel, G. E. Scuseria, 
 M. A. Robb, J. R. Cheeseman, G. Scalmani, V. Barone, 
 G. A. Petersson, H. Nakatsuji, X. Li, M. Caricato, A. V. Marenich, 
 J. Bloino, B. G. Janesko, R. Gomperts, B. Mennucci, H. P. Hratchian, 
 J. V. Ortiz, A. F. Izmaylov, J. L. Sonnenberg, D. Williams-Young, 
 F. Ding, F. Lipparini, F. Egidi, J. Goings, B. Peng, A. Petrone, 
 T. Henderson, D. Ranasinghe, V. G. Zakrzewski, J. Gao, N. Rega, 
 G. Zheng, W. Liang, M. Hada, M. Ehara, K. Toyota, R. Fukuda, 
 J. Hasegawa, M. Ishida, T. Nakajima, Y. Honda, O. Kitao, H. Nakai, 
 T. Vreven, K. Throssell, J. A. Montgomery, Jr., J. E. Peralta, 
 F. Ogliaro, M. J. Bearpark, J. J. Heyd, E. N. Brothers, K. N. Kudin, 
 V. N. Staroverov, T. A. Keith, R. Kobayashi, J. Normand, 
 K. Raghavachari, A. P. Rendell, J. C. Burant, S. S. Iyengar, 
 J. Tomasi, M. Cossi, J. M. Millam, M. Klene, C. Adamo, R. Cammi, 
 J. W. Ochterski, R. L. Martin, K. Morokuma, O. Farkas, 
 J. B. Foresman, and D. J. Fox, Gaussian, Inc., Wallingford CT, 2019.
 
 ************************************************
 Gaussian 16:  Fujitsu-Arm-G16RevC.01  3-Jul-2019
                   27-Sep-2023 
 ************************************************
 %mem=24GB
 %nproc=42
 Will use up to   42 processors via shared memory.
 -------------------------------------------------------------
 #P TEST b3lyp/6-311G** EmpiricalDispersion=GD3 counterpoise=2
 -------------------------------------------------------------
 1/38=1,62=2,172=1/1;
 2/12=2,17=6,18=5,40=1/2;
 1/38=1,53=2,62=2,63=1/22;
 3/5=4,6=6,7=101,11=2,25=1,30=1,74=-5,124=31/1,2,3;
 4//1;
 5/5=2,38=5/2;
 6/7=2,8=2,9=2,10=2,28=1/1;
 1/53=2,62=2,63=1/22;
 3/5=7,6=11,7=101,11=2,25=1,30=1,74=-5,82=7,124=31/1,2,3;
 4//1;
 5/5=2,38=5/2;
 6/7=2,8=2,9=2,10=2,28=1/1;
 1/53=2,62=2,63=1/22(-4);
 99/5=1,9=1/99;
 Leave Link    1 at Wed Sep 27 16:57:36 2023, MaxMem=  3221225472 cpu:               1.0 elap:               0.2
 (Enter /home/center/opt/aarch64/apps/gaussian16/c01/g16/l101.exe)
 ----------------------------
 pentacene_A1=0_A2=0_A3=45_t1
 ----------------------------
 Symbolic Z-matrix:
 Charge =  0 Multiplicity = 1 in supermolecule
 Charge =  0 Multiplicity = 1 in fragment      1.
 Charge =  0 Multiplicity = 1 in fragment      2.
 C(Fragment=1)        -0.50395   0.52395  -3.66128 
 C(Fragment=1)         0.52395  -0.50395  -3.66128 
 C(Fragment=1)        -0.98612   1.00612  -4.92359 
 C(Fragment=1)         1.00613  -0.98613  -4.92359 
 C(Fragment=1)        -0.49632   0.51632  -6.09636 
 C(Fragment=1)         0.51632  -0.49632  -6.09636 
 C(Fragment=1)        -0.98447   1.00447  -2.45332 
 C(Fragment=1)        -0.50449   0.52449  -1.21403 
 C(Fragment=1)         1.00447  -0.98447  -2.45332 
 C(Fragment=1)         0.52449  -0.50449  -1.21403 
 H(Fragment=1)        -1.75336   1.77336  -4.92326 
 H(Fragment=1)        -1.75219   1.77219  -2.45393 
 H(Fragment=1)         1.77219  -1.75219  -2.45393 
 H(Fragment=1)         1.77336  -1.75336  -4.92326 
 H(Fragment=1)         0.89056  -0.87056  -7.04253 
 H(Fragment=1)        -0.87056   0.89056  -7.04253 
 C(Fragment=1)        -0.98482   1.00482   0.01 
 C(Fragment=1)        -0.50449   0.52449   1.23403 
 C(Fragment=1)         1.00482  -0.98482   0.01 
 C(Fragment=1)         0.52449  -0.50449   1.23403 
 H(Fragment=1)        -1.75247   1.77247   0.01 
 H(Fragment=1)         1.77247  -1.75247   0.01 
 C(Fragment=1)        -0.98447   1.00447   2.47332 
 C(Fragment=1)        -0.50395   0.52395   3.68128 
 C(Fragment=1)         1.00447  -0.98447   2.47332 
 C(Fragment=1)         0.52395  -0.50395   3.68128 
 H(Fragment=1)        -1.75219   1.77219   2.47393 
 H(Fragment=1)         1.77219  -1.75219   2.47393 
 C(Fragment=1)        -0.98612   1.00612   4.94359 
 C(Fragment=1)        -0.49632   0.51632   6.11636 
 C(Fragment=1)         1.00612  -0.98612   4.94359 
 C(Fragment=1)         0.51632  -0.49632   6.11636 
 H(Fragment=1)        -1.75336   1.77336   4.94326 
 H(Fragment=1)        -0.87056   0.89056   7.06253 
 H(Fragment=1)         0.89056  -0.87056   7.06253 
 H(Fragment=1)         1.77336  -1.75336   4.94326 
 C(Fragment=2)         5.02395   3.52395  -3.66128 
 C(Fragment=2)         3.99605   2.49605  -3.66128 
 C(Fragment=2)         5.50612   4.00612  -4.92359 
 C(Fragment=2)         3.51387   2.01387  -4.92359 
 C(Fragment=2)         5.01632   3.51632  -6.09636 
 C(Fragment=2)         4.00368   2.50368  -6.09636 
 C(Fragment=2)         5.50447   4.00447  -2.45332 
 C(Fragment=2)         5.02449   3.52449  -1.21403 
 C(Fragment=2)         3.51553   2.01553  -2.45332 
 C(Fragment=2)         3.99551   2.49551  -1.21403 
 H(Fragment=2)         6.27336   4.77336  -4.92326 
 H(Fragment=2)         6.27219   4.77219  -2.45393 
 H(Fragment=2)         2.74781   1.24781  -2.45393 
 H(Fragment=2)         2.74664   1.24664  -4.92326 
 H(Fragment=2)         3.62944   2.12944  -7.04253 
 H(Fragment=2)         5.39056   3.89056  -7.04253 
 C(Fragment=2)         5.50482   4.00482   0.01 
 C(Fragment=2)         5.02449   3.52449   1.23403 
 C(Fragment=2)         3.51518   2.01518   0.01 
 C(Fragment=2)         3.99551   2.49551   1.23403 
 H(Fragment=2)         6.27247   4.77247   0.01 
 H(Fragment=2)         2.74753   1.24753   0.01 
 C(Fragment=2)         5.50447   4.00447   2.47332 
 C(Fragment=2)         5.02395   3.52395   3.68128 
 C(Fragment=2)         3.51553   2.01553   2.47332 
 C(Fragment=2)         3.99605   2.49605   3.68128 
 H(Fragment=2)         6.27219   4.77219   2.47393 
 H(Fragment=2)         2.74781   1.24781   2.47393 
 C(Fragment=2)         5.50612   4.00612   4.94359 
 C(Fragment=2)         5.01632   3.51632   6.11636 
 C(Fragment=2)         3.51388   2.01388   4.94359 
 C(Fragment=2)         4.00368   2.50368   6.11636 
 H(Fragment=2)         6.27336   4.77336   4.94326 
 H(Fragment=2)         5.39056   3.89056   7.06253 
 H(Fragment=2)         3.62944   2.12944   7.06253 
 H(Fragment=2)         2.74664   1.24664   4.94326 
 
 ITRead=  0  0  0  0  0  0  0  0  0  0  0  0  0  0  0  0  0  0  0  0
 ITRead=  0  0  0  0  0  0  0  0  0  0  0  0  0  0  0  0  0  0  0  0
 ITRead=  0  0  0  0  0  0  0  0  0  0  0  0  0  0  0  0  0  0  0  0
 ITRead=  0  0  0  0  0  0  0  0  0  0  0  0
 MicOpt= -1 -1 -1 -1 -1 -1 -1 -1 -1 -1 -1 -1 -1 -1 -1 -1 -1 -1 -1 -1
 MicOpt= -1 -1 -1 -1 -1 -1 -1 -1 -1 -1 -1 -1 -1 -1 -1 -1 -1 -1 -1 -1
 MicOpt= -1 -1 -1 -1 -1 -1 -1 -1 -1 -1 -1 -1 -1 -1 -1 -1 -1 -1 -1 -1
 MicOpt= -1 -1 -1 -1 -1 -1 -1 -1 -1 -1 -1 -1
 NAtoms=     72 NQM=       72 NQMF=       0 NMMI=      0 NMMIF=      0
                NMic=       0 NMicF=      0.
                    Isotopes and Nuclear Properties:
 (Nuclear quadrupole moments (NQMom) in fm**2, nuclear magnetic moments (NMagM)
  in nuclear magnetons)

  Atom         1           2           3           4           5           6           7           8           9          10
 IAtWgt=          12          12          12          12          12          12          12          12          12          12
 AtmWgt=  12.0000000  12.0000000  12.0000000  12.0000000  12.0000000  12.0000000  12.0000000  12.0000000  12.0000000  12.0000000
 NucSpn=           0           0           0           0           0           0           0           0           0           0
 AtZEff=   0.0000000   0.0000000   0.0000000   0.0000000   0.0000000   0.0000000   0.0000000   0.0000000   0.0000000   0.0000000
 NQMom=    0.0000000   0.0000000   0.0000000   0.0000000   0.0000000   0.0000000   0.0000000   0.0000000   0.0000000   0.0000000
 NMagM=    0.0000000   0.0000000   0.0000000   0.0000000   0.0000000   0.0000000   0.0000000   0.0000000   0.0000000   0.0000000
 AtZNuc=   6.0000000   6.0000000   6.0000000   6.0000000   6.0000000   6.0000000   6.0000000   6.0000000   6.0000000   6.0000000

  Atom        11          12          13          14          15          16          17          18          19          20
 IAtWgt=           1           1           1           1           1           1          12          12          12          12
 AtmWgt=   1.0078250   1.0078250   1.0078250   1.0078250   1.0078250   1.0078250  12.0000000  12.0000000  12.0000000  12.0000000
 NucSpn=           1           1           1           1           1           1           0           0           0           0
 AtZEff=   0.0000000   0.0000000   0.0000000   0.0000000   0.0000000   0.0000000   0.0000000   0.0000000   0.0000000   0.0000000
 NQMom=    0.0000000   0.0000000   0.0000000   0.0000000   0.0000000   0.0000000   0.0000000   0.0000000   0.0000000   0.0000000
 NMagM=    2.7928460   2.7928460   2.7928460   2.7928460   2.7928460   2.7928460   0.0000000   0.0000000   0.0000000   0.0000000
 AtZNuc=   1.0000000   1.0000000   1.0000000   1.0000000   1.0000000   1.0000000   6.0000000   6.0000000   6.0000000   6.0000000

  Atom        21          22          23          24          25          26          27          28          29          30
 IAtWgt=           1           1          12          12          12          12           1           1          12          12
 AtmWgt=   1.0078250   1.0078250  12.0000000  12.0000000  12.0000000  12.0000000   1.0078250   1.0078250  12.0000000  12.0000000
 NucSpn=           1           1           0           0           0           0           1           1           0           0
 AtZEff=   0.0000000   0.0000000   0.0000000   0.0000000   0.0000000   0.0000000   0.0000000   0.0000000   0.0000000   0.0000000
 NQMom=    0.0000000   0.0000000   0.0000000   0.0000000   0.0000000   0.0000000   0.0000000   0.0000000   0.0000000   0.0000000
 NMagM=    2.7928460   2.7928460   0.0000000   0.0000000   0.0000000   0.0000000   2.7928460   2.7928460   0.0000000   0.0000000
 AtZNuc=   1.0000000   1.0000000   6.0000000   6.0000000   6.0000000   6.0000000   1.0000000   1.0000000   6.0000000   6.0000000

  Atom        31          32          33          34          35          36          37          38          39          40
 IAtWgt=          12          12           1           1           1           1          12          12          12          12
 AtmWgt=  12.0000000  12.0000000   1.0078250   1.0078250   1.0078250   1.0078250  12.0000000  12.0000000  12.0000000  12.0000000
 NucSpn=           0           0           1           1           1           1           0           0           0           0
 AtZEff=   0.0000000   0.0000000   0.0000000   0.0000000   0.0000000   0.0000000   0.0000000   0.0000000   0.0000000   0.0000000
 NQMom=    0.0000000   0.0000000   0.0000000   0.0000000   0.0000000   0.0000000   0.0000000   0.0000000   0.0000000   0.0000000
 NMagM=    0.0000000   0.0000000   2.7928460   2.7928460   2.7928460   2.7928460   0.0000000   0.0000000   0.0000000   0.0000000
 AtZNuc=   6.0000000   6.0000000   1.0000000   1.0000000   1.0000000   1.0000000   6.0000000   6.0000000   6.0000000   6.0000000

  Atom        41          42          43          44          45          46          47          48          49          50
 IAtWgt=          12          12          12          12          12          12           1           1           1           1
 AtmWgt=  12.0000000  12.0000000  12.0000000  12.0000000  12.0000000  12.0000000   1.0078250   1.0078250   1.0078250   1.0078250
 NucSpn=           0           0           0           0           0           0           1           1           1           1
 AtZEff=   0.0000000   0.0000000   0.0000000   0.0000000   0.0000000   0.0000000   0.0000000   0.0000000   0.0000000   0.0000000
 NQMom=    0.0000000   0.0000000   0.0000000   0.0000000   0.0000000   0.0000000   0.0000000   0.0000000   0.0000000   0.0000000
 NMagM=    0.0000000   0.0000000   0.0000000   0.0000000   0.0000000   0.0000000   2.7928460   2.7928460   2.7928460   2.7928460
 AtZNuc=   6.0000000   6.0000000   6.0000000   6.0000000   6.0000000   6.0000000   1.0000000   1.0000000   1.0000000   1.0000000

  Atom        51          52          53          54          55          56          57          58          59          60
 IAtWgt=           1           1          12          12          12          12           1           1          12          12
 AtmWgt=   1.0078250   1.0078250  12.0000000  12.0000000  12.0000000  12.0000000   1.0078250   1.0078250  12.0000000  12.0000000
 NucSpn=           1           1           0           0           0           0           1           1           0           0
 AtZEff=   0.0000000   0.0000000   0.0000000   0.0000000   0.0000000   0.0000000   0.0000000   0.0000000   0.0000000   0.0000000
 NQMom=    0.0000000   0.0000000   0.0000000   0.0000000   0.0000000   0.0000000   0.0000000   0.0000000   0.0000000   0.0000000
 NMagM=    2.7928460   2.7928460   0.0000000   0.0000000   0.0000000   0.0000000   2.7928460   2.7928460   0.0000000   0.0000000
 AtZNuc=   1.0000000   1.0000000   6.0000000   6.0000000   6.0000000   6.0000000   1.0000000   1.0000000   6.0000000   6.0000000

  Atom        61          62          63          64          65          66          67          68          69          70
 IAtWgt=          12          12           1           1          12          12          12          12           1           1
 AtmWgt=  12.0000000  12.0000000   1.0078250   1.0078250  12.0000000  12.0000000  12.0000000  12.0000000   1.0078250   1.0078250
 NucSpn=           0           0           1           1           0           0           0           0           1           1
 AtZEff=   0.0000000   0.0000000   0.0000000   0.0000000   0.0000000   0.0000000   0.0000000   0.0000000   0.0000000   0.0000000
 NQMom=    0.0000000   0.0000000   0.0000000   0.0000000   0.0000000   0.0000000   0.0000000   0.0000000   0.0000000   0.0000000
 NMagM=    0.0000000   0.0000000   2.7928460   2.7928460   0.0000000   0.0000000   0.0000000   0.0000000   2.7928460   2.7928460
 AtZNuc=   6.0000000   6.0000000   1.0000000   1.0000000   6.0000000   6.0000000   6.0000000   6.0000000   1.0000000   1.0000000

  Atom        71          72
 IAtWgt=           1           1
 AtmWgt=   1.0078250   1.0078250
 NucSpn=           1           1
 AtZEff=   0.0000000   0.0000000
 NQMom=    0.0000000   0.0000000
 NMagM=    2.7928460   2.7928460
 AtZNuc=   1.0000000   1.0000000
 Leave Link  101 at Wed Sep 27 16:57:38 2023, MaxMem=  3221225472 cpu:               0.8 elap:               0.1
 (Enter /home/center/opt/aarch64/apps/gaussian16/c01/g16/l202.exe)
 Stoichiometry    C44H28
 Framework group  CS[SG(C4H4),X(C40H24)]
 Deg. of freedom   109
 Full point group                 CS      NOp   2
 Largest Abelian subgroup         CS      NOp   2
 Largest concise Abelian subgroup CS      NOp   2
                         Standard orientation:                         
 ---------------------------------------------------------------------
 Center     Atomic      Atomic             Coordinates (Angstroms)
 Number     Number       Type             X           Y           Z
 ---------------------------------------------------------------------
      1          6           0        1.257162   -2.651650    3.671276
      2          6           0       -0.196502   -2.651650    3.671276
      3          6           0        1.939063   -2.651650    4.933593
      4          6           0       -0.878403   -2.651650    4.933593
      5          6           0        1.246377   -2.651650    6.106357
      6          6           0       -0.185717   -2.651650    6.106357
      7          6           0        1.936721   -2.651650    2.463318
      8          6           0        1.257927   -2.651650    1.224029
      9          6           0       -0.876061   -2.651650    2.463317
     10          6           0       -0.197267   -2.651650    1.224029
     11          1           0        3.024092   -2.651650    4.933260
     12          1           0        3.022438   -2.651650    2.463929
     13          1           0       -1.961777   -2.651650    2.463929
     14          1           0       -1.963432   -2.651650    4.933260
     15          1           0       -0.714965   -2.651650    7.052528
     16          1           0        1.775625   -2.651650    7.052528
     17          6           0        1.937216   -2.651650    0.000000
     18          6           0        1.257927   -2.651650   -1.224029
     19          6           0       -0.876556   -2.651650    0.000000
     20          6           0       -0.197267   -2.651650   -1.224029
     21          1           0        3.022839   -2.651650    0.000000
     22          1           0       -1.962177   -2.651650    0.000000
     23          6           0        1.936721   -2.651650   -2.463318
     24          6           0        1.257162   -2.651650   -3.671276
     25          6           0       -0.876061   -2.651650   -2.463317
     26          6           0       -0.196502   -2.651650   -3.671276
     27          1           0        3.022438   -2.651650   -2.463929
     28          1           0       -1.961777   -2.651650   -2.463929
     29          6           0        1.939063   -2.651650   -4.933593
     30          6           0        1.246377   -2.651650   -6.106357
     31          6           0       -0.878403   -2.651650   -4.933593
     32          6           0       -0.185717   -2.651650   -6.106357
     33          1           0        3.024092   -2.651650   -4.933260
     34          1           0        1.775625   -2.651650   -7.052528
     35          1           0       -0.714965   -2.651650   -7.052528
     36          1           0       -1.963432   -2.651650   -4.933260
     37          6           0       -0.530330    3.378482    3.671276
     38          6           0       -0.530330    1.924818    3.671276
     39          6           0       -0.530330    4.060384    4.933593
     40          6           0       -0.530330    1.242917    4.933593
     41          6           0       -0.530330    3.367697    6.106357
     42          6           0       -0.530330    1.935603    6.106357
     43          6           0       -0.530330    4.058041    2.463318
     44          6           0       -0.530330    3.379247    1.224029
     45          6           0       -0.530330    1.245260    2.463317
     46          6           0       -0.530330    1.924054    1.224029
     47          1           0       -0.530330    5.145412    4.933260
     48          1           0       -0.530330    5.143759    2.463929
     49          1           0       -0.530330    0.159543    2.463929
     50          1           0       -0.530330    0.157889    4.933260
     51          1           0       -0.530330    1.406355    7.052528
     52          1           0       -0.530330    3.896945    7.052528
     53          6           0       -0.530330    4.058536    0.000000
     54          6           0       -0.530330    3.379247   -1.224029
     55          6           0       -0.530330    1.244765    0.000000
     56          6           0       -0.530330    1.924054   -1.224029
     57          1           0       -0.530330    5.144159    0.000000
     58          1           0       -0.530330    0.159143    0.000000
     59          6           0       -0.530330    4.058041   -2.463318
     60          6           0       -0.530330    3.378482   -3.671276
     61          6           0       -0.530330    1.245260   -2.463317
     62          6           0       -0.530330    1.924818   -3.671276
     63          1           0       -0.530330    5.143759   -2.463929
     64          1           0       -0.530330    0.159543   -2.463929
     65          6           0       -0.530330    4.060384   -4.933593
     66          6           0       -0.530330    3.367697   -6.106357
     67          6           0       -0.530330    1.242917   -4.933593
     68          6           0       -0.530330    1.935603   -6.106357
     69          1           0       -0.530330    5.145412   -4.933260
     70          1           0       -0.530330    3.896945   -7.052528
     71          1           0       -0.530330    1.406355   -7.052528
     72          1           0       -0.530330    0.157889   -4.933260
 ---------------------------------------------------------------------
 Rotational constants (GHZ):           0.1046057           0.0563744           0.0387797
 Leave Link  202 at Wed Sep 27 16:57:41 2023, MaxMem=  3221225472 cpu:               0.6 elap:               0.0
 (Enter /home/center/opt/aarch64/apps/gaussian16/c01/g16/l122.exe)
 Counterpoise: doing full-system calculation.
 Leave Link  122 at Wed Sep 27 16:57:43 2023, MaxMem=  3221225472 cpu:               0.4 elap:               0.0
 (Enter /home/center/opt/aarch64/apps/gaussian16/c01/g16/l301.exe)
 Standard basis: 6-311G(d,p) (5D, 7F)
 Ernie: Thresh=  0.10000D-02 Tol=  0.10000D-05 Strict=F.
 There are   528 symmetry adapted cartesian basis functions of A'  symmetry.
 There are   476 symmetry adapted cartesian basis functions of A"  symmetry.
 There are   504 symmetry adapted basis functions of A'  symmetry.
 There are   456 symmetry adapted basis functions of A"  symmetry.
   960 basis functions,  1632 primitive gaussians,  1004 cartesian basis functions
   146 alpha electrons      146 beta electrons
       nuclear repulsion energy      4608.4565334850 Hartrees.
 IExCor=  402 DFT=T Ex+Corr=B3LYP ExCW=0 ScaHFX=  0.200000
 ScaDFX=  0.800000  0.720000  1.000000  0.810000 ScalE2=  1.000000  1.000000
 IRadAn=      5 IRanWt=     -1 IRanGd=            0 ICorTp=0 IEmpDi=131
 NAtoms=   72 NActive=   72 NUniq=   40 SFac= 3.24D+00 NAtFMM=   60 NAOKFM=T Big=F
 Integral buffers will be    131072 words long.
 Raffenetti 2 integral format.
 Two-electron integral symmetry is turned on.
 R6Disp:  Grimme-D3 Dispersion energy=       -0.0794528809 Hartrees.
 Nuclear repulsion after empirical dispersion term =     4608.3770806041 Hartrees.
 Leave Link  301 at Wed Sep 27 16:57:45 2023, MaxMem=  3221225472 cpu:               2.0 elap:               0.1
 (Enter /home/center/opt/aarch64/apps/gaussian16/c01/g16/l302.exe)
 NPDir=0 NMtPBC=     1 NCelOv=     1 NCel=       1 NClECP=     1 NCelD=      1
         NCelK=      1 NCelE2=     1 NClLst=     1 CellRange=     0.0.
 One-electron integrals computed using PRISM.
 One-electron integral symmetry used in STVInt
 NBasis=   960 RedAO= T EigKep=  3.77D-05  NBF=   504   456
 NBsUse=   960 1.00D-06 EigRej= -1.00D+00 NBFU=   504   456
 Precomputing XC quadrature grid using
 IXCGrd= 4 IRadAn=           5 IRanWt=          -1 IRanGd=           0 AccXCQ= 0.00D+00.
 Generated NRdTot=       0 NPtTot=           0 NUsed=           0 NTot=          32
 NSgBfM=   991   991   991   991   991 MxSgAt=    72 MxSgA2=    72.
 Leave Link  302 at Wed Sep 27 16:57:50 2023, MaxMem=  3221225472 cpu:              64.4 elap:               1.9
 (Enter /home/center/opt/aarch64/apps/gaussian16/c01/g16/l303.exe)
 DipDrv:  MaxL=1.
 Leave Link  303 at Wed Sep 27 16:57:52 2023, MaxMem=  3221225472 cpu:              14.7 elap:               0.5
 (Enter /home/center/opt/aarch64/apps/gaussian16/c01/g16/l401.exe)
 ExpMin= 1.03D-01 ExpMax= 4.56D+03 ExpMxC= 6.82D+02 IAcc=3 IRadAn=         5 AccDes= 0.00D+00
 Harris functional with IExCor=  402 and IRadAn=       5 diagonalized for initial guess.
 HarFok:  IExCor=  402 AccDes= 0.00D+00 IRadAn=         5 IDoV= 1 UseB2=F ITyADJ=14
 ICtDFT=  3500011 ScaDFX=  1.000000  1.000000  1.000000  1.000000
 FoFCou: FMM=F IPFlag=           0 FMFlag=      100000 FMFlg1=        2000
         NFxFlg=           0 DoJE=T BraDBF=F KetDBF=T FulRan=T
         wScrn=  0.000000 ICntrl=       500 IOpCl=  0 I1Cent=   200000004 NGrid=           0
         NMat0=    1 NMatS0=      1 NMatT0=    0 NMatD0=    1 NMtDS0=    0 NMtDT0=    0
 Petite list used in FoFCou.
 Harris En= -1694.13923137650    
 JPrj=0 DoOrth=F DoCkMO=F.
 Initial guess orbital symmetries:
       Occupied  (A") (A') (A") (A') (A') (A") (A') (A") (A") (A')
                 (A") (A') (A") (A') (A") (A') (A") (A') (A") (A')
                 (A") (A') (A") (A') (A') (A') (A') (A') (A") (A')
                 (A") (A') (A") (A') (A") (A') (A") (A') (A") (A')
                 (A') (A") (A') (A") (A') (A') (A") (A") (A') (A')
                 (A") (A") (A') (A') (A') (A') (A") (A") (A') (A')
                 (A") (A") (A") (A") (A') (A') (A') (A') (A") (A")
                 (A") (A") (A') (A') (A") (A") (A') (A') (A') (A')
                 (A') (A') (A") (A") (A") (A") (A") (A") (A') (A')
                 (A') (A') (A") (A") (A') (A') (A') (A') (A") (A")
                 (A') (A') (A") (A") (A") (A") (A') (A') (A') (A')
                 (A") (A") (A') (A') (A") (A") (A') (A') (A") (A")
                 (A") (A") (A') (A') (A') (A') (A") (A") (A') (A')
                 (A") (A") (A') (A') (A") (A") (A') (A') (A') (A')
                 (A") (A") (A") (A") (A') (A')
       Virtual   (A') (A') (A") (A") (A") (A") (A') (A') (A') (A')
                 (A") (A") (A') (A') (A") (A") (A') (A") (A') (A')
                 (A') (A') (A") (A') (A') (A") (A") (A') (A") (A")
                 (A') (A") (A') (A") (A') (A') (A") (A") (A') (A")
                 (A') (A") (A') (A") (A') (A') (A") (A') (A') (A')
                 (A') (A") (A') (A") (A') (A') (A") (A") (A') (A')
                 (A") (A") (A") (A") (A') (A') (A") (A") (A') (A")
                 (A') (A") (A') (A') (A") (A') (A") (A") (A') (A")
                 (A') (A') (A') (A") (A') (A') (A") (A') (A") (A')
                 (A') (A") (A") (A") (A') (A") (A') (A") (A') (A")
                 (A') (A') (A") (A") (A") (A') (A') (A") (A') (A')
                 (A') (A') (A") (A') (A') (A") (A") (A') (A') (A")
                 (A') (A") (A") (A') (A") (A') (A") (A") (A') (A')
                 (A") (A") (A') (A") (A") (A') (A') (A") (A") (A')
                 (A') (A") (A') (A') (A') (A") (A') (A') (A') (A")
                 (A') (A") (A") (A') (A") (A') (A') (A") (A") (A')
                 (A") (A') (A") (A') (A') (A") (A") (A') (A') (A")
                 (A') (A") (A") (A') (A') (A") (A') (A") (A') (A")
                 (A') (A") (A') (A") (A') (A") (A') (A') (A') (A")
                 (A') (A") (A') (A") (A") (A') (A') (A') (A") (A")
                 (A") (A') (A') (A') (A") (A') (A") (A') (A") (A')
                 (A") (A') (A') (A") (A') (A") (A") (A") (A") (A')
                 (A") (A') (A") (A') (A') (A") (A') (A") (A') (A")
                 (A') (A') (A') (A') (A") (A") (A') (A") (A") (A')
                 (A') (A") (A") (A') (A') (A") (A') (A") (A') (A")
                 (A") (A") (A') (A") (A') (A') (A") (A') (A') (A')
                 (A") (A') (A") (A") (A') (A") (A") (A') (A") (A')
                 (A") (A") (A') (A") (A') (A') (A") (A') (A") (A")
                 (A') (A') (A') (A') (A") (A") (A') (A') (A") (A")
                 (A') (A') (A") (A') (A") (A") (A") (A") (A") (A')
                 (A") (A') (A') (A') (A') (A') (A') (A") (A') (A")
                 (A") (A") (A") (A') (A") (A") (A') (A') (A') (A')
                 (A') (A") (A") (A') (A') (A") (A') (A") (A") (A')
                 (A") (A") (A') (A") (A') (A") (A') (A') (A') (A")
                 (A") (A') (A") (A') (A") (A') (A') (A") (A") (A')
                 (A') (A') (A") (A') (A") (A') (A') (A") (A') (A")
                 (A') (A') (A') (A") (A') (A") (A") (A") (A") (A")
                 (A") (A') (A') (A") (A") (A") (A') (A') (A') (A')
                 (A") (A') (A") (A') (A') (A') (A') (A") (A') (A")
                 (A") (A') (A') (A') (A") (A') (A") (A") (A") (A')
                 (A") (A') (A") (A') (A") (A') (A') (A") (A") (A')
                 (A') (A") (A') (A') (A") (A') (A") (A') (A") (A')
                 (A') (A') (A') (A") (A") (A') (A') (A") (A") (A')
                 (A") (A") (A") (A') (A") (A') (A") (A") (A') (A")
                 (A") (A') (A') (A") (A') (A') (A") (A") (A') (A")
                 (A') (A') (A') (A") (A") (A') (A') (A") (A') (A")
                 (A") (A') (A") (A') (A') (A") (A") (A') (A") (A')
                 (A") (A') (A") (A') (A") (A") (A') (A') (A") (A')
                 (A") (A') (A') (A') (A") (A') (A") (A") (A") (A')
                 (A") (A') (A") (A") (A") (A") (A") (A') (A') (A")
                 (A') (A") (A') (A') (A") (A') (A') (A') (A") (A")
                 (A') (A') (A') (A') (A") (A") (A") (A') (A") (A')
                 (A") (A') (A") (A') (A") (A") (A') (A') (A') (A")
                 (A") (A') (A') (A') (A") (A") (A') (A") (A") (A')
                 (A") (A") (A') (A') (A') (A") (A") (A") (A') (A")
                 (A') (A") (A') (A") (A') (A") (A') (A") (A') (A')
                 (A") (A') (A") (A') (A') (A") (A') (A") (A') (A")
                 (A") (A') (A") (A') (A") (A') (A') (A") (A") (A')
                 (A') (A') (A') (A") (A') (A") (A") (A') (A') (A")
                 (A') (A') (A") (A') (A') (A") (A') (A") (A') (A")
                 (A") (A') (A") (A') (A") (A') (A") (A") (A') (A')
                 (A") (A') (A') (A") (A") (A') (A') (A") (A') (A")
                 (A') (A") (A") (A') (A") (A') (A") (A') (A") (A')
                 (A') (A') (A') (A') (A") (A') (A") (A") (A") (A')
                 (A") (A') (A") (A') (A") (A") (A") (A') (A') (A")
                 (A') (A') (A") (A') (A') (A') (A") (A') (A") (A')
                 (A') (A") (A") (A') (A") (A") (A') (A') (A') (A")
                 (A') (A") (A") (A') (A") (A') (A") (A") (A') (A')
                 (A") (A') (A') (A") (A') (A") (A') (A") (A") (A")
                 (A') (A') (A") (A') (A') (A") (A') (A") (A") (A')
                 (A") (A') (A') (A") (A") (A') (A') (A") (A') (A")
                 (A") (A") (A') (A") (A') (A') (A') (A') (A") (A")
                 (A') (A') (A") (A") (A') (A") (A') (A') (A') (A")
                 (A') (A") (A") (A') (A") (A') (A") (A') (A') (A")
                 (A') (A") (A') (A") (A') (A") (A') (A') (A') (A')
                 (A") (A') (A") (A') (A") (A") (A') (A') (A") (A")
                 (A") (A') (A") (A') (A") (A") (A') (A") (A') (A")
                 (A') (A') (A") (A") (A') (A') (A') (A') (A") (A")
                 (A") (A") (A') (A') (A") (A') (A") (A') (A') (A')
                 (A") (A") (A") (A") (A') (A') (A') (A') (A") (A")
                 (A') (A') (A") (A") (A') (A') (A") (A') (A") (A')
                 (A') (A") (A') (A")
 The electronic state of the initial guess is 1-A'.
 Leave Link  401 at Wed Sep 27 16:57:57 2023, MaxMem=  3221225472 cpu:             105.9 elap:               2.6
 (Enter /home/center/opt/aarch64/apps/gaussian16/c01/g16/l502.exe)
 Integral symmetry usage will be decided dynamically.
 Closed shell SCF:
 Using DIIS extrapolation, IDIIS=  1040.
 NGot=  3221225472 LenX=  3219153746 LenY=  3218144726
 Requested convergence on RMS density matrix=1.00D-08 within 128 cycles.
 Requested convergence on MAX density matrix=1.00D-06.
 Requested convergence on             energy=1.00D-06.
 No special actions if energy rises.
 Fock matrices will be formed incrementally for  20 cycles.
 Integral accuracy reduced to 1.0D-05 until final iterations.

 Cycle   1  Pass 0  IDiag  1:
 FoFJK:  IHMeth= 1 ICntrl=       0 DoSepK=F KAlg= 0 I1Cent=           0 FoldK=F
 IRaf= 550000000 NMat=       1 IRICut=       1 DoRegI=T DoRafI=F ISym2E= 1 IDoP0=0 IntGTp=1.
 FoFCou: FMM=F IPFlag=           0 FMFlag=      100000 FMFlg1=        2000
         NFxFlg=           0 DoJE=F BraDBF=F KetDBF=F FulRan=T
         wScrn=  0.000000 ICntrl=         0 IOpCl=  0 I1Cent=           0 NGrid=           0
         NMat0=    1 NMatS0=      1 NMatT0=    0 NMatD0=    1 NMtDS0=    0 NMtDT0=    0
 Petite list used in FoFCou.
 E= -1693.17134633209    
 DIIS: error= 4.44D-02 at cycle   1 NSaved=   1.
 NSaved= 1 IEnMin= 1 EnMin= -1693.17134633209     IErMin= 1 ErrMin= 4.44D-02
 ErrMax= 4.44D-02  0.00D+00 EMaxC= 1.00D-01 BMatC= 9.00D-01 BMatP= 9.00D-01
 IDIUse=3 WtCom= 5.56D-01 WtEn= 4.44D-01
 Coeff-Com:  0.100D+01
 Coeff-En:   0.100D+01
 Coeff:      0.100D+01
 Gap=     0.064 Goal=   None    Shift=    0.000
 GapD=    0.064 DampG=0.500 DampE=0.500 DampFc=0.2500 IDamp=-1.
 Damping current iteration by 2.50D-01
 RMSDP=1.74D-03 MaxDP=8.40D-02              OVMax= 1.56D-01

 Cycle   2  Pass 0  IDiag  1:
 RMSU=  4.22D-04    CP:  9.82D-01
 E= -1693.48083481559     Delta-E=       -0.309488483495 Rises=F Damp=T
 DIIS: error= 2.59D-02 at cycle   2 NSaved=   2.
 NSaved= 2 IEnMin= 2 EnMin= -1693.48083481559     IErMin= 2 ErrMin= 2.59D-02
 ErrMax= 2.59D-02  0.00D+00 EMaxC= 1.00D-01 BMatC= 2.99D-01 BMatP= 9.00D-01
 IDIUse=3 WtCom= 7.41D-01 WtEn= 2.59D-01
 Coeff-Com: -0.121D+01 0.221D+01
 Coeff-En:   0.000D+00 0.100D+01
 Coeff:     -0.897D+00 0.190D+01
 Gap=     0.064 Goal=   None    Shift=    0.000
 RMSDP=7.42D-04 MaxDP=3.34D-02 DE=-3.09D-01 OVMax= 9.09D-02

 Cycle   3  Pass 0  IDiag  1:
 RMSU=  4.65D-04    CP:  9.58D-01  2.32D+00
 E= -1694.04712456464     Delta-E=       -0.566289749056 Rises=F Damp=F
 DIIS: error= 4.81D-03 at cycle   3 NSaved=   3.
 NSaved= 3 IEnMin= 3 EnMin= -1694.04712456464     IErMin= 3 ErrMin= 4.81D-03
 ErrMax= 4.81D-03  0.00D+00 EMaxC= 1.00D-01 BMatC= 1.16D-02 BMatP= 2.99D-01
 IDIUse=3 WtCom= 9.52D-01 WtEn= 4.81D-02
 Coeff-Com: -0.253D+00 0.519D+00 0.734D+00
 Coeff-En:   0.000D+00 0.000D+00 0.100D+01
 Coeff:     -0.241D+00 0.494D+00 0.747D+00
 Gap=     0.068 Goal=   None    Shift=    0.000
 RMSDP=2.41D-04 MaxDP=1.34D-02 DE=-5.66D-01 OVMax= 9.81D-02

 Cycle   4  Pass 0  IDiag  1:
 RMSU=  2.11D-04    CP:  9.59D-01  2.23D+00  7.63D-01
 E= -1694.04223478813     Delta-E=        0.004889776515 Rises=F Damp=F
 DIIS: error= 7.04D-03 at cycle   4 NSaved=   4.
 NSaved= 4 IEnMin= 3 EnMin= -1694.04712456464     IErMin= 3 ErrMin= 4.81D-03
 ErrMax= 7.04D-03  0.00D+00 EMaxC= 1.00D-01 BMatC= 1.41D-02 BMatP= 1.16D-02
 IDIUse=3 WtCom= 1.06D-01 WtEn= 8.94D-01
 Coeff-Com: -0.417D-01 0.113D+00 0.528D+00 0.401D+00
 Coeff-En:   0.000D+00 0.000D+00 0.569D+00 0.431D+00
 Coeff:     -0.444D-02 0.120D-01 0.565D+00 0.428D+00
 Gap=     0.065 Goal=   None    Shift=    0.000
 RMSDP=1.47D-04 MaxDP=9.21D-03 DE= 4.89D-03 OVMax= 7.94D-02

 Cycle   5  Pass 0  IDiag  1:
 RMSU=  8.23D-05    CP:  9.60D-01  2.22D+00  8.35D-01  4.43D-01
 E= -1694.05825691213     Delta-E=       -0.016022123996 Rises=F Damp=F
 DIIS: error= 1.94D-03 at cycle   5 NSaved=   5.
 NSaved= 5 IEnMin= 5 EnMin= -1694.05825691213     IErMin= 5 ErrMin= 1.94D-03
 ErrMax= 1.94D-03  0.00D+00 EMaxC= 1.00D-01 BMatC= 9.86D-04 BMatP= 1.16D-02
 IDIUse=3 WtCom= 9.81D-01 WtEn= 1.94D-02
 Coeff-Com: -0.159D-01 0.340D-01 0.247D+00 0.238D+00 0.497D+00
 Coeff-En:   0.000D+00 0.000D+00 0.000D+00 0.135D-01 0.986D+00
 Coeff:     -0.156D-01 0.334D-01 0.242D+00 0.234D+00 0.507D+00
 Gap=     0.065 Goal=   None    Shift=    0.000
 RMSDP=4.64D-05 MaxDP=2.81D-03 DE=-1.60D-02 OVMax= 2.60D-02

 Cycle   6  Pass 0  IDiag  1:
 RMSU=  2.53D-05    CP:  9.59D-01  2.24D+00  8.45D-01  5.25D-01  5.98D-01
 E= -1694.05911022421     Delta-E=       -0.000853312080 Rises=F Damp=F
 DIIS: error= 9.90D-04 at cycle   6 NSaved=   6.
 NSaved= 6 IEnMin= 6 EnMin= -1694.05911022421     IErMin= 6 ErrMin= 9.90D-04
 ErrMax= 9.90D-04  0.00D+00 EMaxC= 1.00D-01 BMatC= 2.39D-04 BMatP= 9.86D-04
 IDIUse=3 WtCom= 9.90D-01 WtEn= 9.90D-03
 Coeff-Com: -0.503D-02 0.763D-02 0.103D+00 0.112D+00 0.365D+00 0.418D+00
 Coeff-En:   0.000D+00 0.000D+00 0.000D+00 0.000D+00 0.212D+00 0.788D+00
 Coeff:     -0.498D-02 0.755D-02 0.101D+00 0.111D+00 0.363D+00 0.421D+00
 Gap=     0.065 Goal=   None    Shift=    0.000
 RMSDP=2.02D-05 MaxDP=1.32D-03 DE=-8.53D-04 OVMax= 1.07D-02

 Cycle   7  Pass 0  IDiag  1:
 RMSU=  1.02D-05    CP:  9.59D-01  2.25D+00  8.51D-01  5.12D-01  6.80D-01
                    CP:  3.85D-01
 E= -1694.05937568464     Delta-E=       -0.000265460434 Rises=F Damp=F
 DIIS: error= 3.14D-04 at cycle   7 NSaved=   7.
 NSaved= 7 IEnMin= 7 EnMin= -1694.05937568464     IErMin= 7 ErrMin= 3.14D-04
 ErrMax= 3.14D-04  0.00D+00 EMaxC= 1.00D-01 BMatC= 1.90D-05 BMatP= 2.39D-04
 IDIUse=3 WtCom= 9.97D-01 WtEn= 3.14D-03
 Coeff-Com: -0.163D-02 0.185D-02 0.543D-01 0.605D-01 0.213D+00 0.289D+00
 Coeff-Com:  0.383D+00
 Coeff-En:   0.000D+00 0.000D+00 0.000D+00 0.000D+00 0.000D+00 0.348D-01
 Coeff-En:   0.965D+00
 Coeff:     -0.163D-02 0.185D-02 0.541D-01 0.603D-01 0.213D+00 0.288D+00
 Coeff:      0.385D+00
 Gap=     0.065 Goal=   None    Shift=    0.000
 RMSDP=5.63D-06 MaxDP=2.83D-04 DE=-2.65D-04 OVMax= 2.19D-03

 Initial convergence to 1.0D-05 achieved.  Increase integral accuracy.
 Cycle   8  Pass 1  IDiag  1:
 E= -1694.05897675703     Delta-E=        0.000398927613 Rises=F Damp=F
 DIIS: error= 1.36D-03 at cycle   1 NSaved=   1.
 NSaved= 1 IEnMin= 1 EnMin= -1694.05897675703     IErMin= 1 ErrMin= 1.36D-03
 ErrMax= 1.36D-03  0.00D+00 EMaxC= 1.00D-01 BMatC= 5.96D-05 BMatP= 5.96D-05
 IDIUse=3 WtCom= 9.86D-01 WtEn= 1.36D-02
 Coeff-Com:  0.100D+01
 Coeff-En:   0.100D+01
 Coeff:      0.100D+01
 Gap=     0.065 Goal=   None    Shift=    0.000
 RMSDP=5.63D-06 MaxDP=2.83D-04 DE= 3.99D-04 OVMax= 2.42D-03

 Cycle   9  Pass 1  IDiag  1:
 RMSU=  4.62D-04    CP:  9.94D-01
 E= -1694.05903390677     Delta-E=       -0.000057149743 Rises=F Damp=F
 DIIS: error= 1.18D-04 at cycle   2 NSaved=   2.
 NSaved= 2 IEnMin= 2 EnMin= -1694.05903390677     IErMin= 2 ErrMin= 1.18D-04
 ErrMax= 1.18D-04  0.00D+00 EMaxC= 1.00D-01 BMatC= 2.73D-06 BMatP= 5.96D-05
 IDIUse=3 WtCom= 9.99D-01 WtEn= 1.18D-03
 Coeff-Com:  0.545D-01 0.945D+00
 Coeff-En:   0.000D+00 0.100D+01
 Coeff:      0.545D-01 0.946D+00
 Gap=     0.065 Goal=   None    Shift=    0.000
 RMSDP=7.32D-06 MaxDP=4.37D-04 DE=-5.71D-05 OVMax= 3.58D-03

 Cycle  10  Pass 1  IDiag  1:
 RMSU=  5.91D-06    CP:  9.93D-01  1.01D+00
 E= -1694.05901953689     Delta-E=        0.000014369880 Rises=F Damp=F
 DIIS: error= 3.26D-04 at cycle   3 NSaved=   3.
 NSaved= 3 IEnMin= 2 EnMin= -1694.05903390677     IErMin= 2 ErrMin= 1.18D-04
 ErrMax= 3.26D-04  0.00D+00 EMaxC= 1.00D-01 BMatC= 1.42D-05 BMatP= 2.73D-06
 IDIUse=3 WtCom= 3.56D-01 WtEn= 6.44D-01
 Coeff-Com: -0.288D-02 0.700D+00 0.303D+00
 Coeff-En:   0.000D+00 0.784D+00 0.216D+00
 Coeff:     -0.103D-02 0.754D+00 0.247D+00
 Gap=     0.065 Goal=   None    Shift=    0.000
 RMSDP=3.55D-06 MaxDP=2.70D-04 DE= 1.44D-05 OVMax= 2.42D-03

 Cycle  11  Pass 1  IDiag  1:
 RMSU=  1.14D-06    CP:  9.93D-01  1.01D+00  4.32D-01
 E= -1694.05903649325     Delta-E=       -0.000016956363 Rises=F Damp=F
 DIIS: error= 4.31D-05 at cycle   4 NSaved=   4.
 NSaved= 4 IEnMin= 4 EnMin= -1694.05903649325     IErMin= 4 ErrMin= 4.31D-05
 ErrMax= 4.31D-05  0.00D+00 EMaxC= 1.00D-01 BMatC= 5.34D-07 BMatP= 2.73D-06
 IDIUse=1 WtCom= 1.00D+00 WtEn= 0.00D+00
 Coeff-Com: -0.376D-02 0.456D+00 0.130D+00 0.418D+00
 Coeff:     -0.376D-02 0.456D+00 0.130D+00 0.418D+00
 Gap=     0.065 Goal=   None    Shift=    0.000
 RMSDP=7.30D-07 MaxDP=3.80D-05 DE=-1.70D-05 OVMax= 1.98D-04

 Cycle  12  Pass 1  IDiag  1:
 RMSU=  4.55D-07    CP:  9.93D-01  1.01D+00  3.39D-01  8.85D-01
 E= -1694.05903705338     Delta-E=       -0.000000560125 Rises=F Damp=F
 DIIS: error= 5.62D-06 at cycle   5 NSaved=   5.
 NSaved= 5 IEnMin= 5 EnMin= -1694.05903705338     IErMin= 5 ErrMin= 5.62D-06
 ErrMax= 5.62D-06  0.00D+00 EMaxC= 1.00D-01 BMatC= 5.45D-09 BMatP= 5.34D-07
 IDIUse=1 WtCom= 1.00D+00 WtEn= 0.00D+00
 Coeff-Com: -0.228D-02 0.269D+00 0.750D-01 0.261D+00 0.398D+00
 Coeff:     -0.228D-02 0.269D+00 0.750D-01 0.261D+00 0.398D+00
 Gap=     0.065 Goal=   None    Shift=    0.000
 RMSDP=1.10D-07 MaxDP=5.26D-06 DE=-5.60D-07 OVMax= 4.97D-05

 Cycle  13  Pass 1  IDiag  1:
 RMSU=  1.00D-07    CP:  9.93D-01  1.01D+00  3.41D-01  8.96D-01  9.13D-01
 E= -1694.05903705976     Delta-E=       -0.000000006379 Rises=F Damp=F
 DIIS: error= 1.76D-06 at cycle   6 NSaved=   6.
 NSaved= 6 IEnMin= 6 EnMin= -1694.05903705976     IErMin= 6 ErrMin= 1.76D-06
 ErrMax= 1.76D-06  0.00D+00 EMaxC= 1.00D-01 BMatC= 6.98D-10 BMatP= 5.45D-09
 IDIUse=1 WtCom= 1.00D+00 WtEn= 0.00D+00
 Coeff-Com: -0.856D-03 0.983D-01 0.273D-01 0.994D-01 0.266D+00 0.510D+00
 Coeff:     -0.856D-03 0.983D-01 0.273D-01 0.994D-01 0.266D+00 0.510D+00
 Gap=     0.065 Goal=   None    Shift=    0.000
 RMSDP=3.32D-08 MaxDP=2.35D-06 DE=-6.38D-09 OVMax= 2.04D-05

 Cycle  14  Pass 1  IDiag  1:
 RMSU=  2.52D-08    CP:  9.93D-01  1.01D+00  3.42D-01  8.93D-01  9.39D-01
                    CP:  8.49D-01
 E= -1694.05903706048     Delta-E=       -0.000000000721 Rises=F Damp=F
 DIIS: error= 7.42D-07 at cycle   7 NSaved=   7.
 NSaved= 7 IEnMin= 7 EnMin= -1694.05903706048     IErMin= 7 ErrMin= 7.42D-07
 ErrMax= 7.42D-07  0.00D+00 EMaxC= 1.00D-01 BMatC= 6.18D-11 BMatP= 6.98D-10
 IDIUse=1 WtCom= 1.00D+00 WtEn= 0.00D+00
 Coeff-Com: -0.344D-03 0.390D-01 0.105D-01 0.409D-01 0.130D+00 0.299D+00
 Coeff-Com:  0.480D+00
 Coeff:     -0.344D-03 0.390D-01 0.105D-01 0.409D-01 0.130D+00 0.299D+00
 Coeff:      0.480D+00
 Gap=     0.065 Goal=   None    Shift=    0.000
 RMSDP=1.40D-08 MaxDP=1.19D-06 DE=-7.21D-10 OVMax= 1.01D-05

 Cycle  15  Pass 1  IDiag  1:
 RMSU=  1.03D-08    CP:  9.93D-01  1.01D+00  3.42D-01  8.94D-01  9.38D-01
                    CP:  8.67D-01  6.40D-01
 E= -1694.05903706052     Delta-E=       -0.000000000045 Rises=F Damp=F
 DIIS: error= 3.79D-07 at cycle   8 NSaved=   8.
 NSaved= 8 IEnMin= 8 EnMin= -1694.05903706052     IErMin= 8 ErrMin= 3.79D-07
 ErrMax= 3.79D-07  0.00D+00 EMaxC= 1.00D-01 BMatC= 2.71D-11 BMatP= 6.18D-11
 IDIUse=1 WtCom= 1.00D+00 WtEn= 0.00D+00
 Coeff-Com: -0.669D-05 0.276D-03-0.335D-03 0.212D-02 0.246D-01 0.833D-01
 Coeff-Com:  0.398D+00 0.492D+00
 Coeff:     -0.669D-05 0.276D-03-0.335D-03 0.212D-02 0.246D-01 0.833D-01
 Coeff:      0.398D+00 0.492D+00
 Gap=     0.065 Goal=   None    Shift=    0.000
 RMSDP=6.30D-09 MaxDP=4.04D-07 DE=-4.55D-11 OVMax= 3.49D-06

 SCF Done:  E(RB3LYP) =  -1694.05903706     A.U. after   15 cycles
            NFock= 15  Conv=0.63D-08     -V/T= 2.0044
 KE= 1.686690403883D+03 PE=-1.314725064401D+04 EE= 5.158124122462D+03
 Leave Link  502 at Wed Sep 27 16:59:43 2023, MaxMem=  3221225472 cpu:            3762.1 elap:             103.4
 (Enter /home/center/opt/aarch64/apps/gaussian16/c01/g16/l601.exe)
 Copying SCF densities to generalized density rwf, IOpCl= 0 IROHF=0.

 **********************************************************************

            Population analysis using the SCF Density.

 **********************************************************************

 Orbital symmetries:
       Occupied  (A') (A") (A') (A") (A") (A') (A") (A') (A') (A')
                 (A") (A') (A") (A') (A") (A') (A") (A') (A") (A')
                 (A") (A') (A") (A') (A") (A') (A') (A") (A') (A")
                 (A") (A') (A') (A") (A') (A") (A') (A") (A') (A')
                 (A") (A') (A") (A') (A') (A") (A') (A") (A') (A')
                 (A") (A") (A') (A') (A") (A') (A') (A") (A') (A')
                 (A") (A") (A") (A") (A') (A') (A') (A') (A") (A")
                 (A") (A') (A") (A") (A') (A') (A") (A') (A') (A')
                 (A') (A") (A") (A') (A") (A") (A') (A") (A') (A')
                 (A") (A') (A') (A") (A") (A') (A") (A") (A') (A')
                 (A") (A') (A') (A') (A') (A') (A") (A") (A") (A')
                 (A') (A') (A") (A") (A") (A") (A") (A') (A") (A')
                 (A') (A') (A') (A") (A') (A") (A') (A") (A") (A")
                 (A') (A") (A') (A') (A") (A') (A") (A') (A') (A')
                 (A") (A") (A") (A") (A') (A')
       Virtual   (A') (A') (A") (A") (A") (A") (A') (A') (A') (A")
                 (A') (A') (A") (A') (A") (A') (A') (A') (A") (A")
                 (A') (A') (A") (A") (A') (A") (A') (A") (A') (A")
                 (A") (A') (A") (A') (A') (A") (A") (A') (A") (A')
                 (A') (A') (A") (A') (A") (A') (A") (A') (A") (A')
                 (A") (A') (A') (A') (A') (A') (A') (A") (A") (A')
                 (A") (A") (A") (A") (A') (A') (A") (A") (A') (A")
                 (A') (A') (A") (A') (A") (A') (A") (A') (A") (A")
                 (A') (A') (A') (A') (A') (A") (A') (A") (A') (A")
                 (A") (A") (A') (A') (A') (A") (A") (A') (A') (A")
                 (A") (A') (A") (A') (A') (A") (A') (A") (A") (A")
                 (A') (A') (A') (A") (A') (A") (A") (A') (A') (A")
                 (A') (A") (A') (A') (A') (A') (A') (A') (A") (A")
                 (A') (A") (A") (A') (A') (A") (A') (A") (A') (A")
                 (A') (A') (A") (A') (A") (A') (A") (A") (A") (A')
                 (A") (A") (A') (A') (A") (A') (A') (A") (A') (A")
                 (A') (A") (A') (A") (A') (A") (A') (A") (A') (A")
                 (A") (A') (A') (A") (A') (A') (A') (A") (A') (A")
                 (A") (A") (A') (A') (A") (A') (A") (A') (A") (A')
                 (A") (A') (A") (A") (A') (A') (A") (A') (A") (A')
                 (A') (A") (A') (A") (A') (A') (A") (A') (A") (A')
                 (A") (A') (A") (A") (A') (A') (A") (A') (A") (A')
                 (A") (A") (A') (A") (A") (A') (A') (A') (A") (A')
                 (A") (A') (A") (A') (A') (A") (A') (A") (A") (A')
                 (A') (A") (A') (A") (A') (A") (A") (A') (A") (A')
                 (A") (A') (A") (A") (A') (A') (A') (A") (A") (A')
                 (A') (A") (A') (A") (A') (A") (A') (A') (A") (A")
                 (A') (A") (A") (A') (A') (A") (A') (A") (A") (A')
                 (A") (A') (A') (A") (A') (A") (A") (A') (A') (A")
                 (A') (A') (A") (A") (A') (A") (A') (A') (A") (A')
                 (A") (A") (A") (A") (A') (A') (A") (A') (A') (A')
                 (A") (A") (A') (A') (A") (A") (A') (A") (A') (A')
                 (A") (A') (A") (A') (A') (A") (A') (A") (A") (A")
                 (A') (A") (A') (A") (A') (A') (A") (A") (A') (A')
                 (A") (A') (A') (A') (A") (A") (A') (A') (A") (A')
                 (A") (A") (A') (A") (A') (A') (A') (A') (A') (A")
                 (A') (A") (A') (A") (A") (A') (A") (A") (A") (A')
                 (A") (A") (A') (A") (A') (A") (A') (A") (A") (A')
                 (A') (A') (A") (A') (A") (A') (A') (A") (A') (A')
                 (A') (A") (A') (A") (A') (A") (A') (A") (A") (A')
                 (A") (A') (A") (A') (A") (A') (A') (A') (A") (A")
                 (A') (A') (A") (A") (A') (A') (A") (A') (A') (A")
                 (A') (A') (A") (A') (A") (A') (A") (A') (A") (A')
                 (A") (A") (A") (A') (A") (A") (A') (A') (A") (A')
                 (A') (A") (A") (A') (A") (A") (A') (A') (A") (A')
                 (A") (A') (A") (A') (A") (A') (A") (A') (A") (A')
                 (A") (A') (A") (A') (A") (A') (A") (A') (A') (A')
                 (A") (A") (A') (A") (A") (A") (A') (A") (A') (A')
                 (A') (A") (A") (A') (A') (A') (A") (A') (A") (A")
                 (A") (A") (A") (A') (A") (A") (A") (A') (A") (A')
                 (A') (A") (A') (A') (A") (A') (A') (A') (A") (A")
                 (A') (A') (A") (A') (A") (A') (A') (A") (A') (A")
                 (A") (A") (A') (A") (A') (A') (A") (A') (A") (A")
                 (A') (A") (A') (A') (A") (A") (A') (A") (A') (A')
                 (A") (A') (A") (A') (A') (A") (A") (A") (A') (A")
                 (A') (A") (A") (A') (A') (A") (A') (A") (A') (A')
                 (A") (A') (A') (A") (A") (A') (A") (A') (A") (A')
                 (A") (A') (A') (A') (A") (A') (A') (A') (A") (A")
                 (A") (A') (A") (A') (A') (A") (A") (A') (A") (A')
                 (A") (A') (A") (A") (A") (A') (A') (A') (A') (A')
                 (A") (A') (A") (A") (A') (A") (A') (A") (A') (A')
                 (A") (A') (A') (A") (A') (A') (A') (A") (A') (A")
                 (A") (A') (A") (A') (A") (A') (A") (A") (A") (A')
                 (A") (A') (A") (A') (A') (A') (A') (A') (A") (A')
                 (A") (A") (A") (A") (A') (A") (A') (A") (A') (A')
                 (A') (A") (A') (A") (A') (A') (A") (A') (A") (A')
                 (A") (A') (A") (A') (A") (A") (A') (A') (A') (A")
                 (A') (A") (A") (A') (A") (A') (A") (A") (A') (A')
                 (A') (A') (A") (A") (A') (A") (A') (A") (A") (A")
                 (A') (A') (A") (A') (A') (A') (A") (A") (A") (A')
                 (A') (A') (A") (A") (A') (A") (A') (A") (A') (A")
                 (A") (A') (A") (A") (A') (A') (A') (A") (A') (A")
                 (A') (A') (A") (A') (A") (A') (A') (A") (A') (A")
                 (A') (A") (A") (A') (A") (A') (A') (A") (A") (A')
                 (A') (A") (A') (A") (A') (A') (A") (A') (A') (A")
                 (A') (A') (A") (A") (A') (A") (A') (A') (A") (A")
                 (A") (A') (A") (A") (A') (A') (A") (A") (A') (A")
                 (A') (A') (A") (A") (A') (A') (A') (A') (A") (A")
                 (A") (A") (A') (A') (A") (A') (A") (A') (A') (A')
                 (A") (A") (A") (A") (A') (A') (A") (A') (A') (A")
                 (A') (A") (A') (A') (A") (A") (A') (A') (A") (A')
                 (A') (A") (A') (A")
 The electronic state is 1-A'.
 Alpha  occ. eigenvalues --  -10.19636 -10.19636 -10.19572 -10.19571 -10.19540
 Alpha  occ. eigenvalues --  -10.19540 -10.19455 -10.19455 -10.18658 -10.18611
 Alpha  occ. eigenvalues --  -10.18592 -10.18592 -10.18573 -10.18572 -10.18517
 Alpha  occ. eigenvalues --  -10.18517 -10.18446 -10.18446 -10.18435 -10.18435
 Alpha  occ. eigenvalues --  -10.18347 -10.18347 -10.18056 -10.18055 -10.18009
 Alpha  occ. eigenvalues --  -10.18009 -10.17962 -10.17962 -10.17888 -10.17888
 Alpha  occ. eigenvalues --  -10.17136 -10.17136 -10.17064 -10.17064 -10.17063
 Alpha  occ. eigenvalues --  -10.17057 -10.17057 -10.16974 -10.16974 -10.16937
 Alpha  occ. eigenvalues --  -10.16901 -10.16901 -10.16834 -10.16834  -0.90039
 Alpha  occ. eigenvalues --   -0.88541  -0.88456  -0.87005  -0.86214  -0.84701
 Alpha  occ. eigenvalues --   -0.83074  -0.81573  -0.80489  -0.79175  -0.78961
 Alpha  occ. eigenvalues --   -0.78914  -0.77683  -0.77432  -0.76629  -0.75120
 Alpha  occ. eigenvalues --   -0.74911  -0.73536  -0.73411  -0.72036  -0.69839
 Alpha  occ. eigenvalues --   -0.68324  -0.67990  -0.66495  -0.63371  -0.62997
 Alpha  occ. eigenvalues --   -0.61869  -0.61735  -0.61532  -0.60577  -0.60189
 Alpha  occ. eigenvalues --   -0.59913  -0.59061  -0.58422  -0.58310  -0.56844
 Alpha  occ. eigenvalues --   -0.53335  -0.53182  -0.52905  -0.51866  -0.51696
 Alpha  occ. eigenvalues --   -0.51454  -0.50248  -0.49135  -0.48774  -0.47752
 Alpha  occ. eigenvalues --   -0.47696  -0.46702  -0.46317  -0.46159  -0.46111
 Alpha  occ. eigenvalues --   -0.45346  -0.44779  -0.44624  -0.44550  -0.43767
 Alpha  occ. eigenvalues --   -0.43153  -0.43104  -0.42410  -0.42373  -0.42177
 Alpha  occ. eigenvalues --   -0.41953  -0.41713  -0.41346  -0.41017  -0.40912
 Alpha  occ. eigenvalues --   -0.40685  -0.40529  -0.40239  -0.39814  -0.39562
 Alpha  occ. eigenvalues --   -0.38791  -0.38747  -0.37434  -0.37360  -0.36940
 Alpha  occ. eigenvalues --   -0.36142  -0.35914  -0.35538  -0.34732  -0.34573
 Alpha  occ. eigenvalues --   -0.34395  -0.33664  -0.33525  -0.33236  -0.32934
 Alpha  occ. eigenvalues --   -0.32761  -0.32121  -0.31582  -0.30731  -0.30230
 Alpha  occ. eigenvalues --   -0.29065  -0.28807  -0.27605  -0.27265  -0.25775
 Alpha  occ. eigenvalues --   -0.25082  -0.23547  -0.23248  -0.21734  -0.18550
 Alpha  occ. eigenvalues --   -0.16986
 Alpha virt. eigenvalues --   -0.10457  -0.08899  -0.05152  -0.03630  -0.03467
 Alpha virt. eigenvalues --   -0.01928  -0.00857   0.00692   0.01385   0.01571
 Alpha virt. eigenvalues --    0.02234   0.02874   0.03213   0.03814   0.03976
 Alpha virt. eigenvalues --    0.04014   0.04665   0.05445   0.05707   0.05950
 Alpha virt. eigenvalues --    0.06067   0.06616   0.07264   0.07616   0.07792
 Alpha virt. eigenvalues --    0.07994   0.08783   0.09112   0.09300   0.09580
 Alpha virt. eigenvalues --    0.10160   0.10418   0.10951   0.11056   0.11311
 Alpha virt. eigenvalues --    0.12084   0.12764   0.13141   0.13383   0.13741
 Alpha virt. eigenvalues --    0.14234   0.14956   0.15641   0.15866   0.17414
 Alpha virt. eigenvalues --    0.17801   0.18285   0.18523   0.18952   0.19616
 Alpha virt. eigenvalues --    0.19635   0.20376   0.22278   0.22376   0.23758
 Alpha virt. eigenvalues --    0.23809   0.23995   0.24217   0.25024   0.25304
 Alpha virt. eigenvalues --    0.25449   0.26267   0.26933   0.27033   0.27428
 Alpha virt. eigenvalues --    0.27637   0.28002   0.28310   0.28735   0.28794
 Alpha virt. eigenvalues --    0.29019   0.29331   0.29638   0.30127   0.30173
 Alpha virt. eigenvalues --    0.30245   0.30609   0.31313   0.31629   0.32202
 Alpha virt. eigenvalues --    0.32307   0.34081   0.34507   0.34814   0.35110
 Alpha virt. eigenvalues --    0.35322   0.35374   0.35842   0.36264   0.36523
 Alpha virt. eigenvalues --    0.36749   0.37530   0.37561   0.37741   0.37901
 Alpha virt. eigenvalues --    0.38436   0.38620   0.38625   0.38783   0.38918
 Alpha virt. eigenvalues --    0.39301   0.39423   0.39593   0.39807   0.40155
 Alpha virt. eigenvalues --    0.40212   0.40421   0.40710   0.41366   0.41529
 Alpha virt. eigenvalues --    0.41723   0.42144   0.42336   0.42371   0.42550
 Alpha virt. eigenvalues --    0.42591   0.42870   0.43143   0.43336   0.43342
 Alpha virt. eigenvalues --    0.43405   0.44147   0.44577   0.44659   0.45154
 Alpha virt. eigenvalues --    0.45194   0.45562   0.45702   0.45703   0.45868
 Alpha virt. eigenvalues --    0.46094   0.46111   0.46222   0.46526   0.46874
 Alpha virt. eigenvalues --    0.46951   0.47209   0.47530   0.47571   0.48087
 Alpha virt. eigenvalues --    0.48348   0.48722   0.48771   0.49041   0.49087
 Alpha virt. eigenvalues --    0.49426   0.49877   0.50182   0.50444   0.50580
 Alpha virt. eigenvalues --    0.50755   0.50904   0.51617   0.51827   0.52175
 Alpha virt. eigenvalues --    0.52468   0.52900   0.52995   0.53604   0.54614
 Alpha virt. eigenvalues --    0.54803   0.55283   0.55550   0.56370   0.56510
 Alpha virt. eigenvalues --    0.57263   0.57354   0.57386   0.57407   0.57950
 Alpha virt. eigenvalues --    0.58289   0.58734   0.59283   0.59510   0.59612
 Alpha virt. eigenvalues --    0.60392   0.60567   0.61296   0.61420   0.61463
 Alpha virt. eigenvalues --    0.61838   0.62040   0.62056   0.62450   0.62839
 Alpha virt. eigenvalues --    0.62894   0.63313   0.63512   0.63531   0.63898
 Alpha virt. eigenvalues --    0.63962   0.64110   0.64520   0.65401   0.65553
 Alpha virt. eigenvalues --    0.66252   0.66292   0.66773   0.66957   0.67096
 Alpha virt. eigenvalues --    0.67767   0.67880   0.68869   0.69787   0.70164
 Alpha virt. eigenvalues --    0.70853   0.70858   0.71665   0.71979   0.72410
 Alpha virt. eigenvalues --    0.72868   0.72909   0.73499   0.73906   0.74034
 Alpha virt. eigenvalues --    0.74498   0.75185   0.75570   0.75765   0.76154
 Alpha virt. eigenvalues --    0.76315   0.76925   0.77488   0.77635   0.78223
 Alpha virt. eigenvalues --    0.78578   0.78979   0.79551   0.79564   0.80401
 Alpha virt. eigenvalues --    0.80532   0.80743   0.81648   0.81756   0.82018
 Alpha virt. eigenvalues --    0.82485   0.83239   0.83440   0.83616   0.83997
 Alpha virt. eigenvalues --    0.84562   0.85173   0.85681   0.85971   0.86396
 Alpha virt. eigenvalues --    0.87099   0.87798   0.88021   0.89305   0.90036
 Alpha virt. eigenvalues --    0.90349   0.90632   0.91330   0.91880   0.92051
 Alpha virt. eigenvalues --    0.92548   0.93042   0.93264   0.93431   0.94641
 Alpha virt. eigenvalues --    0.94765   0.95155   0.95167   0.95854   0.96207
 Alpha virt. eigenvalues --    0.96559   0.96671   0.97105   0.98040   0.98227
 Alpha virt. eigenvalues --    0.98403   0.99396   0.99797   1.00545   1.00898
 Alpha virt. eigenvalues --    1.01011   1.01802   1.01969   1.02347   1.02357
 Alpha virt. eigenvalues --    1.03024   1.03493   1.03912   1.04556   1.04557
 Alpha virt. eigenvalues --    1.04983   1.05067   1.05439   1.05963   1.06025
 Alpha virt. eigenvalues --    1.06173   1.06233   1.06251   1.06502   1.06892
 Alpha virt. eigenvalues --    1.07128   1.07301   1.07913   1.08191   1.08520
 Alpha virt. eigenvalues --    1.09242   1.09461   1.09893   1.10886   1.11001
 Alpha virt. eigenvalues --    1.11288   1.11620   1.11735   1.12895   1.13027
 Alpha virt. eigenvalues --    1.13337   1.13921   1.13937   1.14054   1.14827
 Alpha virt. eigenvalues --    1.15372   1.15968   1.16115   1.16142   1.17301
 Alpha virt. eigenvalues --    1.17585   1.18298   1.18836   1.19345   1.20866
 Alpha virt. eigenvalues --    1.21129   1.22324   1.22821   1.23766   1.24647
 Alpha virt. eigenvalues --    1.25048   1.26345   1.27732   1.27898   1.30184
 Alpha virt. eigenvalues --    1.30524   1.30691   1.32262   1.32353   1.33171
 Alpha virt. eigenvalues --    1.34243   1.35381   1.35652   1.36617   1.37428
 Alpha virt. eigenvalues --    1.38623   1.39362   1.39682   1.40203   1.40437
 Alpha virt. eigenvalues --    1.40528   1.40895   1.41016   1.41668   1.42341
 Alpha virt. eigenvalues --    1.42540   1.43372   1.44036   1.44310   1.44926
 Alpha virt. eigenvalues --    1.45118   1.45807   1.46741   1.47169   1.47250
 Alpha virt. eigenvalues --    1.47285   1.47957   1.48372   1.48862   1.49376
 Alpha virt. eigenvalues --    1.49460   1.49634   1.49843   1.50235   1.50844
 Alpha virt. eigenvalues --    1.50915   1.51567   1.51655   1.52530   1.52716
 Alpha virt. eigenvalues --    1.52792   1.53837   1.54156   1.54393   1.54687
 Alpha virt. eigenvalues --    1.54861   1.54909   1.55155   1.55252   1.55754
 Alpha virt. eigenvalues --    1.56169   1.57698   1.57838   1.58107   1.58357
 Alpha virt. eigenvalues --    1.59280   1.59524   1.60062   1.60787   1.60919
 Alpha virt. eigenvalues --    1.61821   1.61838   1.62560   1.62907   1.64380
 Alpha virt. eigenvalues --    1.65055   1.65762   1.66136   1.66158   1.67674
 Alpha virt. eigenvalues --    1.68954   1.69267   1.69815   1.70605   1.70626
 Alpha virt. eigenvalues --    1.70717   1.70749   1.71788   1.72026   1.72127
 Alpha virt. eigenvalues --    1.73333   1.73562   1.73594   1.73707   1.73938
 Alpha virt. eigenvalues --    1.74024   1.74344   1.74383   1.75398   1.76332
 Alpha virt. eigenvalues --    1.76921   1.78375   1.78720   1.79055   1.79899
 Alpha virt. eigenvalues --    1.80016   1.80164   1.80453   1.81228   1.81819
 Alpha virt. eigenvalues --    1.82056   1.82058   1.82702   1.82867   1.83060
 Alpha virt. eigenvalues --    1.83595   1.84576   1.84682   1.84699   1.85164
 Alpha virt. eigenvalues --    1.85244   1.86571   1.87071   1.87493   1.87695
 Alpha virt. eigenvalues --    1.87780   1.88159   1.88467   1.88475   1.88682
 Alpha virt. eigenvalues --    1.89012   1.89149   1.89230   1.90545   1.91003
 Alpha virt. eigenvalues --    1.91237   1.91285   1.91560   1.92053   1.92455
 Alpha virt. eigenvalues --    1.92732   1.93133   1.93700   1.93724   1.94021
 Alpha virt. eigenvalues --    1.94246   1.94258   1.94821   1.94852   1.95457
 Alpha virt. eigenvalues --    1.95991   1.96280   1.96680   1.96776   1.97813
 Alpha virt. eigenvalues --    1.98380   1.99612   2.00838   2.00866   2.00957
 Alpha virt. eigenvalues --    2.01004   2.01107   2.02480   2.02634   2.04208
 Alpha virt. eigenvalues --    2.05538   2.06569   2.07860   2.08039   2.08733
 Alpha virt. eigenvalues --    2.09255   2.09597   2.10414   2.10901   2.11425
 Alpha virt. eigenvalues --    2.11652   2.12101   2.13144   2.13853   2.15129
 Alpha virt. eigenvalues --    2.15199   2.16099   2.16600   2.16657   2.18039
 Alpha virt. eigenvalues --    2.18172   2.19444   2.20341   2.21622   2.21748
 Alpha virt. eigenvalues --    2.22442   2.22758   2.23134   2.23293   2.23762
 Alpha virt. eigenvalues --    2.24026   2.25056   2.25447   2.26466   2.26657
 Alpha virt. eigenvalues --    2.26767   2.27523   2.27828   2.28079   2.28150
 Alpha virt. eigenvalues --    2.28335   2.29649   2.29705   2.30446   2.32278
 Alpha virt. eigenvalues --    2.33723   2.35158   2.35306   2.36667   2.38678
 Alpha virt. eigenvalues --    2.38759   2.40097   2.40209   2.41052   2.41479
 Alpha virt. eigenvalues --    2.42503   2.43075   2.44979   2.45055   2.45369
 Alpha virt. eigenvalues --    2.45414   2.45711   2.46659   2.46950   2.49436
 Alpha virt. eigenvalues --    2.50132   2.52667   2.52780   2.53620   2.53997
 Alpha virt. eigenvalues --    2.54632   2.54994   2.55532   2.56677   2.56844
 Alpha virt. eigenvalues --    2.57428   2.58185   2.58866   2.59148   2.59296
 Alpha virt. eigenvalues --    2.59644   2.60360   2.60783   2.60979   2.61250
 Alpha virt. eigenvalues --    2.61366   2.61608   2.61779   2.62419   2.62795
 Alpha virt. eigenvalues --    2.63057   2.63677   2.63777   2.64434   2.64697
 Alpha virt. eigenvalues --    2.65280   2.65629   2.65988   2.66442   2.66616
 Alpha virt. eigenvalues --    2.66851   2.67714   2.68163   2.68516   2.68800
 Alpha virt. eigenvalues --    2.68800   2.69025   2.69201   2.69642   2.69768
 Alpha virt. eigenvalues --    2.69905   2.70104   2.70433   2.70624   2.70792
 Alpha virt. eigenvalues --    2.71192   2.71750   2.72247   2.72845   2.73430
 Alpha virt. eigenvalues --    2.73871   2.74116   2.74505   2.75232   2.75318
 Alpha virt. eigenvalues --    2.76117   2.76552   2.76798   2.77171   2.77908
 Alpha virt. eigenvalues --    2.78296   2.78778   2.79359   2.79566   2.79569
 Alpha virt. eigenvalues --    2.79767   2.80846   2.80927   2.81801   2.82805
 Alpha virt. eigenvalues --    2.83050   2.83156   2.84424   2.84696   2.85358
 Alpha virt. eigenvalues --    2.85878   2.86732   2.87001   2.87382   2.87822
 Alpha virt. eigenvalues --    2.89470   2.89709   2.90215   2.90451   2.91864
 Alpha virt. eigenvalues --    2.92262   2.92375   2.93153   2.93743   2.94326
 Alpha virt. eigenvalues --    2.95260   2.95504   2.96151   2.98351   2.98455
 Alpha virt. eigenvalues --    2.98684   2.99922   3.00431   3.02275   3.03008
 Alpha virt. eigenvalues --    3.04783   3.06025   3.07091   3.07783   3.07963
 Alpha virt. eigenvalues --    3.08497   3.09020   3.15610   3.15932   3.16389
 Alpha virt. eigenvalues --    3.17074   3.17515   3.17882   3.19521   3.20181
 Alpha virt. eigenvalues --    3.21055   3.21452   3.23389   3.24934   3.29216
 Alpha virt. eigenvalues --    3.29780   3.30430   3.30862   3.31462   3.32984
 Alpha virt. eigenvalues --    3.35104   3.35433   3.36305   3.36684   3.37082
 Alpha virt. eigenvalues --    3.37282   3.37492   3.38145   3.39118   3.39721
 Alpha virt. eigenvalues --    3.40532   3.41077   3.41248   3.43243   3.44899
 Alpha virt. eigenvalues --    3.45108   3.46042   3.46725   3.49019   3.49083
 Alpha virt. eigenvalues --    3.50060   3.50962   3.51377   3.51921   3.52907
 Alpha virt. eigenvalues --    3.55233   3.57191   3.58500   3.58593   3.60212
 Alpha virt. eigenvalues --    3.61920   3.62657   3.62847   3.63849   3.64036
 Alpha virt. eigenvalues --    3.64997   3.66156   3.66476   3.67013   3.68030
 Alpha virt. eigenvalues --    3.68591   3.68869   3.70296   3.70390   4.00032
 Alpha virt. eigenvalues --    4.00086   4.01324   4.01609   4.02024   4.02033
 Alpha virt. eigenvalues --    4.02967   4.03287   4.15672   4.16217   4.17375
 Alpha virt. eigenvalues --    4.18208   4.18831   4.20482   4.20925   4.21978
 Alpha virt. eigenvalues --    4.22116   4.23082   4.23992   4.25649   4.25692
 Alpha virt. eigenvalues --    4.28652   4.38117   4.40526   4.61722   4.64020
 Alpha virt. eigenvalues --    4.78541   4.79162   4.79920   4.80607   4.80986
 Alpha virt. eigenvalues --    4.82012   4.82172   4.82464   4.84405   4.84728
 Alpha virt. eigenvalues --   23.39764  23.42684  23.54995  23.58314  23.69558
 Alpha virt. eigenvalues --   23.72431  23.77577  23.78748  23.80793  23.81492
 Alpha virt. eigenvalues --   23.82438  23.83589  23.86026  23.87379  23.88922
 Alpha virt. eigenvalues --   23.89580  23.90424  23.90745  23.92141  23.93893
 Alpha virt. eigenvalues --   23.96932  23.98197  23.98614  23.99419  24.08741
 Alpha virt. eigenvalues --   24.09390  24.10062  24.10074  24.10882  24.11485
 Alpha virt. eigenvalues --   24.11775  24.13215  24.13384  24.13771  24.14932
 Alpha virt. eigenvalues --   24.15203  24.15239  24.15636  24.16617  24.16651
 Alpha virt. eigenvalues --   24.19883  24.19928  24.21469  24.21527
          Condensed to atoms (all electrons):
 Mulliken charges:
               1
     1  C   -0.061131
     2  C   -0.043101
     3  C   -0.047114
     4  C   -0.088747
     5  C   -0.088977
     6  C   -0.088440
     7  C    0.002772
     8  C   -0.061878
     9  C   -0.064494
    10  C   -0.030330
    11  H    0.085125
    12  H    0.078112
    13  H    0.076421
    14  H    0.085354
    15  H    0.098457
    16  H    0.097503
    17  C   -0.001724
    18  C   -0.061878
    19  C   -0.068661
    20  C   -0.030330
    21  H    0.076790
    22  H    0.075167
    23  C    0.002772
    24  C   -0.061131
    25  C   -0.064494
    26  C   -0.043101
    27  H    0.078112
    28  H    0.076421
    29  C   -0.047114
    30  C   -0.088977
    31  C   -0.088747
    32  C   -0.088440
    33  H    0.085125
    34  H    0.097503
    35  H    0.098457
    36  H    0.085354
    37  C   -0.025833
    38  C   -0.118416
    39  C   -0.063059
    40  C   -0.050938
    41  C   -0.086597
    42  C   -0.119767
    43  C   -0.030475
    44  C   -0.014039
    45  C   -0.009809
    46  C   -0.123774
    47  H    0.078697
    48  H    0.070458
    49  H    0.126044
    50  H    0.127570
    51  H    0.086278
    52  H    0.091205
    53  C   -0.034682
    54  C   -0.014039
    55  C   -0.014129
    56  C   -0.123774
    57  H    0.069068
    58  H    0.124016
    59  C   -0.030475
    60  C   -0.025833
    61  C   -0.009809
    62  C   -0.118416
    63  H    0.070458
    64  H    0.126044
    65  C   -0.063059
    66  C   -0.086597
    67  C   -0.050938
    68  C   -0.119767
    69  H    0.078697
    70  H    0.091205
    71  H    0.086278
    72  H    0.127570
 Sum of Mulliken charges =   0.00000
 Mulliken charges with hydrogens summed into heavy atoms:
               1
     1  C   -0.061131
     2  C   -0.043101
     3  C    0.038011
     4  C   -0.003393
     5  C    0.008526
     6  C    0.010017
     7  C    0.080884
     8  C   -0.061878
     9  C    0.011927
    10  C   -0.030330
    17  C    0.075066
    18  C   -0.061878
    19  C    0.006506
    20  C   -0.030330
    23  C    0.080884
    24  C   -0.061131
    25  C    0.011927
    26  C   -0.043101
    29  C    0.038011
    30  C    0.008526
    31  C   -0.003393
    32  C    0.010017
    37  C   -0.025833
    38  C   -0.118416
    39  C    0.015638
    40  C    0.076632
    41  C    0.004608
    42  C   -0.033489
    43  C    0.039983
    44  C   -0.014039
    45  C    0.116235
    46  C   -0.123774
    53  C    0.034386
    54  C   -0.014039
    55  C    0.109887
    56  C   -0.123774
    59  C    0.039983
    60  C   -0.025833
    61  C    0.116235
    62  C   -0.118416
    65  C    0.015638
    66  C    0.004608
    67  C    0.076632
    68  C   -0.033489
         Mulliken charges condensed to fragments:
      1     -0.019364
      2      0.019364
 Electronic spatial extent (au):  <R**2>=          26223.2378
 Charge=              0.0000 electrons
 Dipole moment (field-independent basis, Debye):
    X=              0.5818    Y=             -1.4764    Z=              0.0000  Tot=              1.5869
 Quadrupole moment (field-independent basis, Debye-Ang):
   XX=           -245.8543   YY=           -249.2505   ZZ=           -219.5538
   XY=             -0.3180   XZ=              0.0000   YZ=              0.0000
 Traceless Quadrupole moment (field-independent basis, Debye-Ang):
   XX=             -7.6347   YY=            -11.0310   ZZ=             18.6657
   XY=             -0.3180   XZ=              0.0000   YZ=              0.0000
 Octapole moment (field-independent basis, Debye-Ang**2):
  XXX=             44.4552  YYY=            178.2614  ZZZ=              0.0000  XYY=             -8.7329
  XXY=            -73.2425  XXZ=              0.0000  XZZ=             10.2104  YZZ=            -33.9695
  YYZ=              0.0000  XYZ=              0.0000
 Hexadecapole moment (field-independent basis, Debye-Ang**3):
 XXXX=          -1674.1291 YYYY=         -11759.0517 ZZZZ=         -21023.4528 XXXY=           1036.3704
 XXXZ=              0.0000 YYYX=           1045.8905 YYYZ=              0.0000 ZZZX=              0.0000
 ZZZY=              0.0000 XXYY=          -2312.9690 XXZZ=          -4222.1740 YYZZ=          -5744.2792
 XXYZ=              0.0000 YYXZ=              0.0000 ZZXY=            305.9332
 N-N= 4.608377080604D+03 E-N=-1.314725063291D+04  KE= 1.686690403883D+03
 Symmetry A'   KE= 9.134256281203D+02
 Symmetry A"   KE= 7.732647757628D+02
 No NMR shielding tensors so no spin-rotation constants.
 Leave Link  601 at Wed Sep 27 16:59:47 2023, MaxMem=  3221225472 cpu:              54.1 elap:               1.4
 (Enter /home/center/opt/aarch64/apps/gaussian16/c01/g16/l122.exe)
 CPIOFr:  IOpCl= 0 IRwI=-1 IRwCP=  731 ICalc= -1 LCPTot=     1419224 Len1MO=     3708034 IndFrg=     1419224
 CPIOFr:  IOpCl= 0 IRwI=-1 IRwCP=  731 ICalc=  0 LCPTot=     1419224 Len1MO=     3708034 IndFrg=     5127258
 Counterpoise: doing calculation for fragment   1 using the basis set of the full-system, NewBq=T
 Leave Link  122 at Wed Sep 27 16:59:50 2023, MaxMem=  3221225472 cpu:               9.1 elap:               0.5
 (Enter /home/center/opt/aarch64/apps/gaussian16/c01/g16/l301.exe)
 Basis read from rwf:  (5D, 7F)
 No pseudopotential information found on rwf file.
 There are   528 symmetry adapted cartesian basis functions of A'  symmetry.
 There are   476 symmetry adapted cartesian basis functions of A"  symmetry.
 There are   504 symmetry adapted basis functions of A'  symmetry.
 There are   456 symmetry adapted basis functions of A"  symmetry.
   960 basis functions,  1632 primitive gaussians,  1004 cartesian basis functions
    73 alpha electrons       73 beta electrons
       nuclear repulsion energy      1494.3575060292 Hartrees.
 IExCor=  402 DFT=T Ex+Corr=B3LYP ExCW=0 ScaHFX=  0.200000
 ScaDFX=  0.800000  0.720000  1.000000  0.810000 ScalE2=  1.000000  1.000000
 IRadAn=      5 IRanWt=     -1 IRanGd=            0 ICorTp=0 IEmpDi=131
 NAtoms=   72 NActive=   72 NUniq=   40 SFac= 3.24D+00 NAtFMM=   60 NAOKFM=T Big=F
 Integral buffers will be    131072 words long.
 Raffenetti 2 integral format.
 Two-electron integral symmetry is turned on.
 R6Disp:  Grimme-D3 Dispersion energy=       -0.0303938888 Hartrees.
 Nuclear repulsion after empirical dispersion term =     1494.3271121404 Hartrees.
 No density basis found on file    718.
 Leave Link  301 at Wed Sep 27 16:59:52 2023, MaxMem=  3221225472 cpu:               3.4 elap:               0.1
 (Enter /home/center/opt/aarch64/apps/gaussian16/c01/g16/l302.exe)
 NPDir=0 NMtPBC=     1 NCelOv=     1 NCel=       1 NClECP=     1 NCelD=      1
         NCelK=      1 NCelE2=     1 NClLst=     1 CellRange=     0.0.
 One-electron integrals computed using PRISM.
 One-electron integral symmetry used in STVInt
 NBasis=   960 RedAO= T EigKep=  3.77D-05  NBF=   504   456
 NBsUse=   960 1.00D-06 EigRej= -1.00D+00 NBFU=   504   456
 Precomputing XC quadrature grid using
 IXCGrd= 4 IRadAn=           5 IRanWt=          -1 IRanGd=           0 AccXCQ= 0.00D+00.
 Generated NRdTot=       0 NPtTot=           0 NUsed=           0 NTot=          32
 NSgBfM=   991   991   991   991   991 MxSgAt=    72 MxSgA2=    72.
 Leave Link  302 at Wed Sep 27 16:59:56 2023, MaxMem=  3221225472 cpu:              60.1 elap:               1.7
 (Enter /home/center/opt/aarch64/apps/gaussian16/c01/g16/l303.exe)
 DipDrv:  MaxL=1.
 Leave Link  303 at Wed Sep 27 16:59:59 2023, MaxMem=  3221225472 cpu:              12.8 elap:               0.4
 (Enter /home/center/opt/aarch64/apps/gaussian16/c01/g16/l401.exe)
 ExpMin= 1.03D-01 ExpMax= 4.56D+03 ExpMxC= 6.82D+02 IAcc=3 IRadAn=         5 AccDes= 0.00D+00
 Harris functional with IExCor=  402 and IRadAn=       5 diagonalized for initial guess.
 HarFok:  IExCor=  402 AccDes= 0.00D+00 IRadAn=         5 IDoV= 1 UseB2=F ITyADJ=14
 ICtDFT=  3500011 ScaDFX=  1.000000  1.000000  1.000000  1.000000
 FoFCou: FMM=F IPFlag=           0 FMFlag=      100000 FMFlg1=        2000
         NFxFlg=           0 DoJE=T BraDBF=F KetDBF=T FulRan=T
         wScrn=  0.000000 ICntrl=       500 IOpCl=  0 I1Cent=   200000004 NGrid=           0
         NMat0=    1 NMatS0=      1 NMatT0=    0 NMatD0=    1 NMtDS0=    0 NMtDT0=    0
 Petite list used in FoFCou.
 Harris En= -847.066394114696    
 JPrj=0 DoOrth=F DoCkMO=F.
 Initial guess orbital symmetries:
       Occupied  (A") (A') (A') (A") (A") (A') (A") (A') (A') (A")
                 (A") (A') (A') (A') (A") (A') (A") (A') (A") (A')
                 (A') (A") (A') (A") (A') (A") (A') (A') (A") (A')
                 (A") (A") (A') (A') (A") (A") (A') (A") (A') (A')
                 (A') (A") (A") (A") (A') (A') (A") (A') (A') (A")
                 (A') (A") (A") (A') (A') (A") (A') (A") (A') (A")
                 (A") (A') (A') (A") (A') (A") (A') (A") (A') (A')
                 (A") (A") (A')
       Virtual   (A') (A") (A") (A') (A') (A") (A') (A") (A') (A")
                 (A') (A') (A") (A') (A") (A') (A') (A") (A') (A")
                 (A") (A") (A') (A') (A") (A') (A') (A') (A') (A')
                 (A") (A") (A") (A') (A') (A") (A') (A") (A") (A')
                 (A') (A") (A") (A') (A") (A') (A") (A') (A") (A')
                 (A') (A") (A') (A") (A') (A') (A") (A") (A') (A")
                 (A') (A') (A') (A") (A") (A') (A") (A') (A") (A')
                 (A') (A") (A") (A') (A') (A') (A") (A') (A') (A')
                 (A") (A") (A") (A') (A") (A') (A') (A") (A') (A")
                 (A") (A") (A") (A') (A') (A") (A') (A") (A') (A')
                 (A') (A") (A') (A') (A") (A') (A") (A') (A') (A")
                 (A') (A") (A") (A') (A") (A') (A") (A") (A') (A")
                 (A') (A") (A') (A") (A') (A') (A") (A') (A") (A')
                 (A') (A") (A') (A') (A") (A") (A') (A") (A') (A')
                 (A') (A") (A') (A') (A') (A") (A") (A") (A") (A')
                 (A") (A') (A") (A') (A") (A") (A') (A') (A') (A")
                 (A') (A") (A') (A") (A') (A') (A") (A") (A') (A")
                 (A") (A') (A") (A') (A') (A') (A") (A") (A') (A')
                 (A") (A") (A') (A') (A") (A") (A') (A") (A') (A')
                 (A") (A') (A') (A") (A') (A") (A') (A') (A") (A")
                 (A') (A") (A") (A') (A") (A') (A") (A') (A") (A')
                 (A') (A") (A') (A") (A") (A') (A") (A') (A") (A')
                 (A") (A') (A') (A') (A") (A") (A') (A') (A") (A')
                 (A') (A") (A') (A") (A") (A') (A") (A") (A') (A")
                 (A') (A") (A') (A") (A') (A') (A') (A") (A") (A")
                 (A') (A") (A") (A') (A') (A') (A') (A') (A") (A")
                 (A") (A") (A') (A') (A') (A') (A") (A") (A') (A")
                 (A') (A') (A") (A") (A") (A') (A") (A') (A") (A')
                 (A') (A") (A") (A') (A') (A") (A') (A") (A') (A')
                 (A") (A') (A") (A') (A') (A') (A") (A") (A') (A")
                 (A') (A') (A') (A") (A") (A') (A") (A") (A") (A")
                 (A") (A') (A') (A") (A') (A') (A') (A") (A') (A')
                 (A") (A') (A") (A") (A') (A') (A") (A') (A') (A")
                 (A") (A') (A') (A') (A") (A') (A") (A') (A') (A")
                 (A") (A") (A") (A') (A') (A") (A") (A') (A') (A')
                 (A') (A") (A") (A') (A") (A') (A") (A') (A') (A')
                 (A") (A') (A") (A') (A") (A") (A') (A") (A') (A")
                 (A') (A") (A") (A') (A") (A') (A") (A') (A") (A')
                 (A") (A') (A') (A") (A") (A') (A') (A") (A') (A')
                 (A") (A") (A") (A') (A') (A") (A') (A') (A") (A")
                 (A') (A') (A") (A") (A") (A") (A') (A') (A') (A")
                 (A') (A") (A') (A') (A') (A") (A') (A") (A") (A')
                 (A") (A") (A') (A") (A') (A") (A') (A") (A") (A')
                 (A") (A') (A') (A') (A') (A') (A") (A") (A") (A')
                 (A") (A') (A') (A") (A') (A") (A') (A") (A") (A')
                 (A") (A') (A') (A') (A') (A") (A') (A") (A") (A")
                 (A") (A') (A') (A') (A") (A") (A") (A') (A') (A')
                 (A') (A") (A") (A") (A') (A") (A") (A') (A') (A")
                 (A') (A") (A") (A') (A") (A') (A') (A") (A") (A')
                 (A") (A') (A') (A") (A') (A") (A') (A") (A') (A")
                 (A') (A") (A') (A") (A') (A") (A') (A") (A') (A')
                 (A") (A") (A') (A") (A') (A") (A") (A') (A') (A')
                 (A') (A") (A") (A") (A') (A") (A') (A") (A') (A')
                 (A") (A') (A') (A") (A') (A") (A') (A") (A') (A")
                 (A') (A") (A') (A") (A') (A') (A') (A") (A") (A')
                 (A") (A") (A') (A') (A") (A') (A') (A") (A') (A")
                 (A') (A") (A') (A") (A') (A") (A") (A") (A') (A")
                 (A') (A') (A') (A') (A") (A') (A') (A") (A') (A")
                 (A") (A') (A") (A") (A') (A') (A") (A") (A") (A')
                 (A') (A') (A") (A') (A') (A") (A') (A") (A') (A")
                 (A') (A") (A") (A") (A') (A') (A") (A') (A") (A')
                 (A") (A') (A') (A") (A') (A") (A') (A") (A') (A")
                 (A') (A') (A") (A") (A') (A") (A") (A') (A') (A")
                 (A") (A') (A") (A") (A") (A') (A') (A') (A') (A')
                 (A") (A") (A") (A') (A') (A') (A") (A') (A") (A")
                 (A') (A") (A') (A") (A') (A") (A") (A') (A") (A')
                 (A") (A') (A') (A") (A") (A') (A") (A") (A') (A')
                 (A') (A") (A") (A') (A') (A") (A') (A") (A') (A')
                 (A") (A') (A") (A') (A") (A') (A') (A") (A') (A")
                 (A') (A") (A') (A') (A") (A") (A') (A") (A') (A')
[...]
                 (A') (A") (A') (A') (A') (A") (A") (A") (A") (A')
                 (A') (A') (A") (A") (A') (A") (A') (A") (A') (A')
                 (A") (A") (A')
       Virtual   (A') (A") (A") (A') (A') (A") (A') (A') (A') (A")
                 (A") (A') (A") (A') (A") (A') (A") (A") (A') (A")
                 (A') (A') (A") (A') (A") (A') (A') (A') (A') (A")
                 (A") (A") (A") (A') (A') (A") (A') (A") (A') (A")
                 (A') (A') (A') (A") (A') (A") (A") (A') (A') (A")
                 (A") (A') (A') (A") (A') (A") (A") (A") (A') (A")
                 (A') (A') (A') (A') (A') (A") (A') (A') (A") (A")
                 (A") (A') (A') (A') (A") (A') (A") (A") (A") (A')
                 (A') (A") (A') (A") (A") (A') (A") (A') (A') (A')
                 (A') (A') (A") (A") (A") (A") (A') (A") (A') (A")
                 (A') (A') (A') (A") (A") (A') (A') (A") (A') (A")
                 (A') (A") (A") (A") (A') (A') (A") (A') (A') (A")
                 (A') (A") (A") (A') (A') (A") (A') (A") (A') (A")
                 (A") (A') (A') (A') (A') (A") (A") (A") (A') (A")
                 (A') (A") (A') (A") (A') (A') (A") (A") (A') (A")
                 (A') (A") (A') (A") (A') (A') (A") (A') (A") (A")
                 (A') (A") (A') (A') (A") (A") (A') (A") (A') (A")
                 (A') (A') (A") (A') (A') (A") (A") (A') (A') (A')
                 (A") (A') (A") (A") (A") (A") (A') (A") (A') (A')
                 (A") (A') (A") (A') (A') (A') (A") (A') (A") (A')
                 (A") (A") (A') (A') (A") (A") (A') (A') (A") (A')
                 (A') (A') (A') (A") (A") (A") (A") (A') (A') (A")
                 (A') (A") (A") (A') (A") (A') (A") (A') (A") (A')
                 (A") (A') (A') (A") (A') (A") (A") (A') (A') (A")
                 (A") (A') (A') (A") (A") (A') (A") (A") (A") (A')
                 (A') (A") (A') (A') (A") (A') (A') (A") (A') (A")
                 (A") (A') (A") (A') (A') (A") (A") (A") (A') (A')
                 (A") (A') (A') (A") (A") (A") (A') (A") (A') (A')
                 (A") (A') (A") (A') (A") (A') (A') (A') (A") (A')
                 (A") (A") (A') (A') (A") (A") (A') (A") (A') (A")
                 (A') (A') (A") (A") (A') (A') (A") (A') (A') (A')
                 (A") (A") (A') (A") (A') (A") (A') (A") (A') (A')
                 (A') (A") (A") (A") (A') (A") (A') (A') (A') (A")
                 (A") (A') (A") (A') (A') (A") (A') (A") (A") (A')
                 (A') (A") (A') (A") (A") (A') (A') (A") (A') (A")
                 (A') (A") (A') (A") (A') (A") (A") (A') (A') (A")
                 (A') (A") (A') (A') (A") (A") (A') (A") (A') (A')
                 (A") (A') (A") (A') (A') (A") (A') (A") (A') (A")
                 (A") (A') (A") (A') (A") (A') (A") (A') (A') (A")
                 (A") (A') (A") (A') (A') (A") (A") (A') (A') (A")
                 (A') (A") (A') (A") (A') (A') (A")
 The electronic state is 1-A'.
 Alpha  occ. eigenvalues --  -10.18931 -10.18930 -10.18896 -10.18895 -10.18848
 Alpha  occ. eigenvalues --  -10.18848 -10.18813 -10.18813 -10.17956 -10.17955
 Alpha  occ. eigenvalues --  -10.17920 -10.17920 -10.17919 -10.17919 -10.17875
 Alpha  occ. eigenvalues --  -10.17875 -10.17863 -10.17863 -10.17808 -10.17808
 Alpha  occ. eigenvalues --  -10.17781 -10.17781  -0.89340  -0.87865  -0.85549
 Alpha  occ. eigenvalues --   -0.82415  -0.79820  -0.78521  -0.78314  -0.75991
 Alpha  occ. eigenvalues --   -0.74255  -0.72901  -0.69196  -0.67344  -0.62728
 Alpha  occ. eigenvalues --   -0.62370  -0.61108  -0.59964  -0.59301  -0.57689
 Alpha  occ. eigenvalues --   -0.52709  -0.52573  -0.52293  -0.49654  -0.48513
 Alpha  occ. eigenvalues --   -0.47160  -0.46110  -0.45590  -0.45476  -0.43928
 Alpha  occ. eigenvalues --   -0.43182  -0.42578  -0.41808  -0.41572  -0.41386
 Alpha  occ. eigenvalues --   -0.40692  -0.40405  -0.39579  -0.38193  -0.36732
 Alpha  occ. eigenvalues --   -0.36341  -0.35550  -0.34094  -0.33809  -0.33058
 Alpha  occ. eigenvalues --   -0.32930  -0.31612  -0.29665  -0.28406  -0.26623
 Alpha  occ. eigenvalues --   -0.24364  -0.22582  -0.17855
 Alpha virt. eigenvalues --   -0.09755  -0.04464  -0.02747  -0.00147   0.02073
 Alpha virt. eigenvalues --    0.02370   0.03189   0.04746   0.04859   0.04871
 Alpha virt. eigenvalues --    0.06161   0.06575   0.07968   0.08162   0.08303
 Alpha virt. eigenvalues --    0.09607   0.10049   0.11524   0.11533   0.13796
 Alpha virt. eigenvalues --    0.14111   0.14670   0.18092   0.18194   0.18832
 Alpha virt. eigenvalues --    0.19391   0.22815   0.23002   0.24379   0.24942
 Alpha virt. eigenvalues --    0.25581   0.27528   0.27575   0.28012   0.28228
 Alpha virt. eigenvalues --    0.28947   0.29389   0.30158   0.30759   0.31175
 Alpha virt. eigenvalues --    0.32897   0.34528   0.36420   0.36484   0.37134
 Alpha virt. eigenvalues --    0.37503   0.37629   0.37651   0.38116   0.38643
 Alpha virt. eigenvalues --    0.39094   0.39439   0.39739   0.40236   0.40435
 Alpha virt. eigenvalues --    0.41918   0.41926   0.41940   0.42289   0.42318
 Alpha virt. eigenvalues --    0.42643   0.43748   0.44233   0.44835   0.45295
 Alpha virt. eigenvalues --    0.45683   0.45924   0.45953   0.46379   0.47165
 Alpha virt. eigenvalues --    0.47805   0.47809   0.47978   0.48073   0.48231
 Alpha virt. eigenvalues --    0.48568   0.49414   0.49572   0.51377   0.51846
 Alpha virt. eigenvalues --    0.52370   0.53118   0.53671   0.55998   0.57923
 Alpha virt. eigenvalues --    0.57955   0.59048   0.59201   0.60433   0.60585
 Alpha virt. eigenvalues --    0.60693   0.61101   0.61690   0.62105   0.62173
 Alpha virt. eigenvalues --    0.63432   0.63481   0.64458   0.64535   0.65533
 Alpha virt. eigenvalues --    0.66693   0.66910   0.67680   0.67724   0.70658
 Alpha virt. eigenvalues --    0.71305   0.71405   0.71494   0.72803   0.73989
 Alpha virt. eigenvalues --    0.75405   0.75894   0.76289   0.77801   0.77809
 Alpha virt. eigenvalues --    0.78943   0.79160   0.79723   0.81162   0.81509
 Alpha virt. eigenvalues --    0.82881   0.83001   0.84383   0.84585   0.84713
 Alpha virt. eigenvalues --    0.88087   0.89711   0.89765   0.91536   0.92083
 Alpha virt. eigenvalues --    0.92578   0.93749   0.95806   0.96107   0.96442
 Alpha virt. eigenvalues --    0.96590   0.96905   0.98547   1.00356   1.01118
 Alpha virt. eigenvalues --    1.02686   1.03027   1.03354   1.04405   1.05244
 Alpha virt. eigenvalues --    1.05439   1.05525   1.05950   1.07395   1.07547
 Alpha virt. eigenvalues --    1.07686   1.08438   1.10005   1.10036   1.12070
 Alpha virt. eigenvalues --    1.13223   1.13544   1.13650   1.14526   1.15341
 Alpha virt. eigenvalues --    1.17432   1.18332   1.19657   1.20432   1.23014
 Alpha virt. eigenvalues --    1.23618   1.27884   1.28234   1.30579   1.32076
 Alpha virt. eigenvalues --    1.32743   1.34942   1.37641   1.39236   1.39896
 Alpha virt. eigenvalues --    1.39942   1.40725   1.42751   1.43476   1.43554
 Alpha virt. eigenvalues --    1.45057   1.46086   1.47119   1.47538   1.48841
 Alpha virt. eigenvalues --    1.49280   1.49417   1.50258   1.50674   1.52268
 Alpha virt. eigenvalues --    1.52650   1.53402   1.54331   1.54372   1.54781
 Alpha virt. eigenvalues --    1.54807   1.57107   1.57715   1.58569   1.59882
 Alpha virt. eigenvalues --    1.60106   1.62692   1.63242   1.64856   1.66641
 Alpha virt. eigenvalues --    1.69292   1.69605   1.69709   1.70649   1.71804
 Alpha virt. eigenvalues --    1.72459   1.72619   1.73075   1.73096   1.73680
 Alpha virt. eigenvalues --    1.77494   1.78519   1.79157   1.79419   1.80511
 Alpha virt. eigenvalues --    1.81616   1.81887   1.82058   1.83581   1.84039
 Alpha virt. eigenvalues --    1.85487   1.87392   1.87456   1.87577   1.87728
 Alpha virt. eigenvalues --    1.88131   1.88613   1.90743   1.91387   1.92190
 Alpha virt. eigenvalues --    1.92193   1.92572   1.92670   1.93517   1.93938
 Alpha virt. eigenvalues --    1.94544   1.95483   1.97262   1.99429   2.00088
 Alpha virt. eigenvalues --    2.00602   2.01362   2.03019   2.05757   2.08293
 Alpha virt. eigenvalues --    2.09111   2.09256   2.09792   2.12192   2.14098
 Alpha virt. eigenvalues --    2.15528   2.15584   2.17200   2.19751   2.20833
 Alpha virt. eigenvalues --    2.21576   2.22525   2.23381   2.24503   2.26441
 Alpha virt. eigenvalues --    2.26972   2.27242   2.27719   2.28046   2.29391
 Alpha virt. eigenvalues --    2.33301   2.35725   2.39155   2.39384   2.40817
 Alpha virt. eigenvalues --    2.42649   2.43076   2.45776   2.45994   2.46870
 Alpha virt. eigenvalues --    2.51623   2.51954   2.53354   2.53485   2.55138
 Alpha virt. eigenvalues --    2.56159   2.58701   2.58838   2.59764   2.59776
 Alpha virt. eigenvalues --    2.60682   2.61147   2.61719   2.62222   2.63349
 Alpha virt. eigenvalues --    2.63999   2.64478   2.66054   2.66794   2.67121
 Alpha virt. eigenvalues --    2.67374   2.68356   2.68872   2.68876   2.69372
 Alpha virt. eigenvalues --    2.69557   2.69907   2.70083   2.70281   2.73482
 Alpha virt. eigenvalues --    2.74771   2.74836   2.76066   2.77101   2.77577
 Alpha virt. eigenvalues --    2.78232   2.78455   2.78850   2.80822   2.82359
 Alpha virt. eigenvalues --    2.85535   2.85993   2.86737   2.87294   2.90966
 Alpha virt. eigenvalues --    2.91783   2.92195   2.93676   2.95232   2.95887
 Alpha virt. eigenvalues --    2.99270   2.99858   3.03165   3.05604   3.06852
 Alpha virt. eigenvalues --    3.07371   3.15988   3.16029   3.16647   3.19843
 Alpha virt. eigenvalues --    3.20017   3.23601   3.29134   3.29680   3.31610
 Alpha virt. eigenvalues --    3.35095   3.35458   3.35677   3.35858   3.38023
 Alpha virt. eigenvalues --    3.39887   3.41413   3.44960   3.45362   3.47993
 Alpha virt. eigenvalues --    3.48278   3.50401   3.53073   3.57439   3.58649
 Alpha virt. eigenvalues --    3.61466   3.62620   3.63208   3.63698   3.65910
 Alpha virt. eigenvalues --    3.67534   3.67678   4.00384   4.00442   4.01859
 Alpha virt. eigenvalues --    4.02182   4.16133   4.16678   4.17360   4.21240
 Alpha virt. eigenvalues --    4.22396   4.22517   4.25488   4.38492   4.62290
 Alpha virt. eigenvalues --    4.79179   4.79740   4.80562   4.82562   4.83014
 Alpha virt. eigenvalues --   23.39176  23.54541  23.69085  23.77378  23.80419
 Alpha virt. eigenvalues --   23.81537  23.86099  23.89067  23.89154  23.92210
 Alpha virt. eigenvalues --   23.97563  23.98365  24.09049  24.09932  24.10529
 Alpha virt. eigenvalues --   24.12220  24.13779  24.14375  24.15775  24.15810
 Alpha virt. eigenvalues --   24.20452  24.20497
          Condensed to atoms (all electrons):
 Mulliken charges:
               1
     1  C    0.000000
     2  C    0.000000
     3  C    0.000000
     4  C    0.000000
     5  C    0.000000
     6  C    0.000000
     7  C    0.000000
     8  C    0.000000
     9  C    0.000000
    10  C    0.000000
    11  H    0.000000
    12  H    0.000000
    13  H    0.000000
    14  H    0.000000
    15  H    0.000000
    16  H    0.000000
    17  C    0.000000
    18  C    0.000000
    19  C    0.000000
    20  C    0.000000
    21  H    0.000000
    22  H    0.000000
    23  C    0.000000
    24  C    0.000000
    25  C    0.000000
    26  C    0.000000
    27  H    0.000000
    28  H    0.000000
    29  C    0.000000
    30  C    0.000000
    31  C    0.000000
    32  C    0.000000
    33  H    0.000000
    34  H    0.000000
    35  H    0.000000
    36  H    0.000000
    37  C   -0.059168
    38  C   -0.059168
    39  C   -0.055977
    40  C   -0.055977
    41  C   -0.092198
    42  C   -0.092198
    43  C   -0.016525
    44  C   -0.054498
    45  C   -0.016525
    46  C   -0.054498
    47  H    0.082122
    48  H    0.074853
    49  H    0.074853
    50  H    0.082122
    51  H    0.094847
    52  H    0.094847
    53  C   -0.020341
    54  C   -0.054498
    55  C   -0.020341
    56  C   -0.054498
    57  H    0.073428
    58  H    0.073428
    59  C   -0.016525
    60  C   -0.059168
    61  C   -0.016525
    62  C   -0.059168
    63  H    0.074853
    64  H    0.074853
    65  C   -0.055977
    66  C   -0.092198
    67  C   -0.055977
    68  C   -0.092198
    69  H    0.082122
    70  H    0.094847
    71  H    0.094847
    72  H    0.082122
 Sum of Mulliken charges =   0.00000
 Mulliken charges with hydrogens summed into heavy atoms:
               1
     1  C    0.000000
     2  C    0.000000
     3  C    0.000000
     4  C    0.000000
     5  C    0.000000
     6  C    0.000000
     7  C    0.000000
     8  C    0.000000
     9  C    0.000000
    10  C    0.000000
    17  C    0.000000
    18  C    0.000000
    19  C    0.000000
    20  C    0.000000
    23  C    0.000000
    24  C    0.000000
    25  C    0.000000
    26  C    0.000000
    29  C    0.000000
    30  C    0.000000
    31  C    0.000000
    32  C    0.000000
    37  C   -0.059168
    38  C   -0.059168
    39  C    0.026144
    40  C    0.026144
    41  C    0.002649
    42  C    0.002649
    43  C    0.058328
    44  C   -0.054498
    45  C    0.058328
    46  C   -0.054498
    53  C    0.053087
    54  C   -0.054498
    55  C    0.053087
    56  C   -0.054498
    59  C    0.058328
    60  C   -0.059168
    61  C    0.058328
    62  C   -0.059168
    65  C    0.026144
    66  C    0.002649
    67  C    0.026144
    68  C    0.002649
         Mulliken charges condensed to fragments:
      1      0.000000
      2      0.000000
 Electronic spatial extent (au):  <R**2>=          19856.0385
 Charge=              0.0000 electrons
 Dipole moment (field-independent basis, Debye):
    X=              0.0000    Y=              0.0000    Z=              0.0000  Tot=              0.0000
 Quadrupole moment (field-independent basis, Debye-Ang):
   XX=           -136.3921   YY=           -110.7480   ZZ=           -109.0115
   XY=              0.0000   XZ=              0.0000   YZ=              0.0000
 Traceless Quadrupole moment (field-independent basis, Debye-Ang):
   XX=            -17.6749   YY=              7.9692   ZZ=              9.7057
   XY=              0.0000   XZ=              0.0000   YZ=              0.0000
 Octapole moment (field-independent basis, Debye-Ang**2):
  XXX=           1301.9906  YYY=           1057.1942  ZZZ=              0.0000  XYY=            352.3981
  XXY=            433.9969  XXZ=              0.0000  XZZ=            346.8724  YZZ=            346.8724
  YYZ=              0.0000  XYZ=              0.0000
 Hexadecapole moment (field-independent basis, Debye-Ang**3):
 XXXX=          -8440.2215 YYYY=          -7844.6597 ZZZZ=         -10461.4324 XXXY=          -4142.9088
 XXXZ=              0.0000 YYYX=          -3363.9715 YYYZ=              0.0000 ZZZX=              0.0000
 ZZZY=              0.0000 XXYY=          -2758.7088 XXZZ=          -3311.6732 YYZZ=          -3072.9556
 XXYZ=              0.0000 YYXZ=              0.0000 ZZXY=          -1103.7412
 N-N= 1.494327111597D+03 E-N=-4.953709174724D+03  KE= 8.433374904838D+02
 Symmetry A'   KE= 4.567052305353D+02
 Symmetry A"   KE= 3.866322599485D+02
 No NMR shielding tensors so no spin-rotation constants.
 Leave Link  601 at Wed Sep 27 17:16:51 2023, MaxMem=  3221225472 cpu:              18.2 elap:               0.5
 (Enter /home/center/opt/aarch64/apps/gaussian16/c01/g16/l122.exe)
 CPIOFr:  IOpCl= 0 IRwI=-1 IRwCP=  731 ICalc=  4 LCPTot=     1419224 Len1MO=     3708034 IndFrg=    19959394
 Restoring MOs from calculation   1 to rwf.
 CPIOFr:  IOpCl= 0 IRwI=-2 IRwCP=  731 ICalc=  0 LCPTot=     1419224 Len1MO=     3708034 IndFrg=     5127258
 Counterpoise corrected energy =   -1694.040635791327
                   BSSE energy =      -0.000001056160
              sum of fragments =   -1694.039683044257
           complexation energy =      -0.60 kcal/mole (raw)
           complexation energy =      -0.60 kcal/mole (corrected)
 Leave Link  122 at Wed Sep 27 17:16:54 2023, MaxMem=  3221225472 cpu:               8.3 elap:               0.4
 (Enter /home/center/opt/aarch64/apps/gaussian16/c01/g16/l9999.exe)

 Test job not archived.
 1\1\GINC-FX0439\SP\RB3LYP\6-311G(d,p)\C44H28\Z40145W\27-Sep-2023\0\\#P
  TEST b3lyp/6-311G** EmpiricalDispersion=GD3 counterpoise=2\\pentacene
 _A1=0_A2=0_A3=45_p2\\0,1\C,0,-0.5039478476,0.5239478476,-3.6612755801\
 C,0,0.5239480325,-0.5039480325,-3.6612755629\C,0,-0.9861248463,1.00612
 48463,-4.9235927708\C,0,1.0061250889,-0.9861250889,-4.9235926697\C,0,-
 0.4963213507,0.5163213507,-6.096356521\C,0,0.5163216812,-0.4963216812,
 -6.0963564796\C,0,-0.9844684311,1.0044684311,-2.4533174875\C,0,-0.5044
 88426,0.524488426,-1.2140288145\C,0,1.0044685359,-0.9844685359,-2.4533
 173917\C,0,0.5244885437,-0.5044885437,-1.2140288362\H,0,-1.7533559667,
 1.7733559667,-4.9232600459\H,0,-1.7521866813,1.7721866813,-2.453928581
 5\H,0,1.7721859268,-1.7521859268,-2.4539284818\H,0,1.7733558421,-1.753
 3558421,-4.9232597785\H,0,0.8905568758,-0.8705568758,-7.0425276922\H,0
 ,-0.8705565046,0.8905565046,-7.042527775\C,0,-0.9848184961,1.004818496
 1,0.0099998782\C,0,-0.5044883957,0.5244883957,1.2340295553\C,0,1.00481
 85643,-0.9848185643,0.0099998696\C,0,0.5244885146,-0.5044885146,1.2340
 295261\H,0,-1.7524699697,1.7724699697,0.0099999205\H,0,1.772468921,-1.
 752468921,0.0099999641\C,0,-0.9844683048,1.0044683048,2.4733171385\C,0
 ,-0.5039477114,0.5239477114,3.681276331\C,0,1.0044684211,-0.9844684211
 ,2.4733170835\C,0,0.5239479079,-0.5039479079,3.6812763217\H,0,-1.75218
 65527,1.7721865527,2.4739285326\H,0,1.7721858092,-1.7521858092,2.47392
 83796\C,0,-0.9861245177,1.0061245177,4.9435920588\C,0,-0.4963209372,0.
 5163209372,6.116356633\C,0,1.0061247659,-0.9861247659,4.9435919377\C,0
 ,0.5163212637,-0.4963212637,6.1163566075\H,0,-1.7533556504,1.773355650
 4,4.9432601504\H,0,-0.8705567426,0.8905567426,7.0625274368\H,0,0.89055
 70967,-0.8705570967,7.0625272142\H,0,1.7733555414,-1.7533555414,4.9432
 599297\C,0,8.4960521524,0.5239478476,-3.6612755801\C,0,9.5239480325,-0
 .5039480325,-3.6612755629\C,0,8.0138751537,1.0061248463,-4.9235927708\
 C,0,10.0061250889,-0.9861250889,-4.9235926697\C,0,8.5036786493,0.51632
 13507,-6.096356521\C,0,9.5163216812,-0.4963216812,-6.0963564796\C,0,8.
 0155315689,1.0044684311,-2.4533174875\C,0,8.495511574,0.524488426,-1.2
 140288145\C,0,10.0044685359,-0.9844685359,-2.4533173917\C,0,9.52448854
 37,-0.5044885437,-1.2140288362\H,0,7.2466440333,1.7733559667,-4.923260
 0459\H,0,7.2478133187,1.7721866813,-2.4539285815\H,0,10.7721859268,-1.
 7521859268,-2.4539284818\H,0,10.7733558421,-1.7533558421,-4.9232597785
 \H,0,9.8905568758,-0.8705568758,-7.0425276922\H,0,8.1294434954,0.89055
 65046,-7.042527775\C,0,8.0151815039,1.0048184961,0.0099998782\C,0,8.49
 55116043,0.5244883957,1.2340295553\C,0,10.0048185643,-0.9848185643,0.0
 099998696\C,0,9.5244885146,-0.5044885146,1.2340295261\H,0,7.2475300303
 ,1.7724699697,0.0099999205\H,0,10.772468921,-1.752468921,0.0099999641\
 C,0,8.0155316952,1.0044683048,2.4733171385\C,0,8.4960522886,0.52394771
 14,3.681276331\C,0,10.0044684211,-0.9844684211,2.4733170835\C,0,9.5239
 479079,-0.5039479079,3.6812763217\H,0,7.2478134473,1.7721865527,2.4739
 285326\H,0,10.7721858092,-1.7521858092,2.4739283796\C,0,8.0138754823,1
 .0061245177,4.9435920588\C,0,8.5036790628,0.5163209372,6.116356633\C,0
 ,10.0061247659,-0.9861247659,4.9435919377\C,0,9.5163212637,-0.49632126
 37,6.1163566075\H,0,7.2466443496,1.7733556504,4.9432601504\H,0,8.12944
 32574,0.8905567426,7.0625274368\H,0,9.8905570967,-0.8705570967,7.06252
 72142\H,0,10.7733555414,-1.7533555414,4.9432599297\\Version=Fujitsu-Ar
 m-G16RevC.01\State=1-A'\HF=-847.0198415\RMSD=3.182e-09\Dipole=0.000020
 7,-0.0000207,0.\Quadrupole=-7.7321622,-6.685189,14.4173512,-18.4800291
 ,0.,0.\PG=CS [SG(C4H4),X(C40H24)]\\@


 REALITY IS FOR PEOPLE WHO CAN'T FACE SCIENCE FICTION.
 Job cpu time:       0 days  2 hours 39 minutes 33.2 seconds.
 Elapsed time:       0 days  0 hours  4 minutes 16.7 seconds.
 File lengths (MBytes):  RWF=    718 Int=      0 D2E=      0 Chk=    208 Scr=      1
 Normal termination of Gaussian 16 at Wed Sep 27 17:17:00 2023.
