 Entering Gaussian System, Link 0=g16
 Initial command:
 /home/center/opt/aarch64/apps/gaussian16/c01/g16/l1.exe "/data/tmp/Gtmp/1007007/Gau-50.inp" -scrdir="/data/tmp/Gtmp/1007007/"
 Entering Link 1 = /home/center/opt/aarch64/apps/gaussian16/c01/g16/l1.exe PID=        51.
  
 Copyright (c) 1988-2019, Gaussian, Inc.  All Rights Reserved.
  
 This is part of the Gaussian(R) 16 program.  It is based on
 the Gaussian(R) 09 system (copyright 2009, Gaussian, Inc.),
 the Gaussian(R) 03 system (copyright 2003, Gaussian, Inc.),
 the Gaussian(R) 98 system (copyright 1998, Gaussian, Inc.),
 the Gaussian(R) 94 system (copyright 1995, Gaussian, Inc.),
 the Gaussian 92(TM) system (copyright 1992, Gaussian, Inc.),
 the Gaussian 90(TM) system (copyright 1990, Gaussian, Inc.),
 the Gaussian 88(TM) system (copyright 1988, Gaussian, Inc.),
 the Gaussian 86(TM) system (copyright 1986, Carnegie Mellon
 University), and the Gaussian 82(TM) system (copyright 1983,
 Carnegie Mellon University). Gaussian is a federally registered
 trademark of Gaussian, Inc.
  
 This software contains proprietary and confidential information,
 including trade secrets, belonging to Gaussian, Inc.
  
 This software is provided under written license and may be
 used, copied, transmitted, or stored only in accord with that
 written license.
  
 The following legend is applicable only to US Government
 contracts under FAR:
  
                    RESTRICTED RIGHTS LEGEND
  
 Use, reproduction and disclosure by the US Government is
 subject to restrictions as set forth in subparagraphs (a)
 and (c) of the Commercial Computer Software - Restricted
 Rights clause in FAR 52.227-19.
  
 Gaussian, Inc.
 340 Quinnipiac St., Bldg. 40, Wallingford CT 06492
  
  
 ---------------------------------------------------------------
 Warning -- This program may not be used in any manner that
 competes with the business of Gaussian, Inc. or will provide
 assistance to any competitor of Gaussian, Inc.  The licensee
 of this program is prohibited from giving any competitor of
 Gaussian, Inc. access to this program.  By using this program,
 the user acknowledges that Gaussian, Inc. is engaged in the
 business of creating and licensing software in the field of
 computational chemistry and represents and warrants to the
 licensee that it is not a competitor of Gaussian, Inc. and that
 it will not use this program in any manner prohibited above.
 ---------------------------------------------------------------
  

 Cite this work as:
 Gaussian 16, Revision C.01,
 M. J. Frisch, G. W. Trucks, H. B. Schlegel, G. E. Scuseria, 
 M. A. Robb, J. R. Cheeseman, G. Scalmani, V. Barone, 
 G. A. Petersson, H. Nakatsuji, X. Li, M. Caricato, A. V. Marenich, 
 J. Bloino, B. G. Janesko, R. Gomperts, B. Mennucci, H. P. Hratchian, 
 J. V. Ortiz, A. F. Izmaylov, J. L. Sonnenberg, D. Williams-Young, 
 F. Ding, F. Lipparini, F. Egidi, J. Goings, B. Peng, A. Petrone, 
 T. Henderson, D. Ranasinghe, V. G. Zakrzewski, J. Gao, N. Rega, 
 G. Zheng, W. Liang, M. Hada, M. Ehara, K. Toyota, R. Fukuda, 
 J. Hasegawa, M. Ishida, T. Nakajima, Y. Honda, O. Kitao, H. Nakai, 
 T. Vreven, K. Throssell, J. A. Montgomery, Jr., J. E. Peralta, 
 F. Ogliaro, M. J. Bearpark, J. J. Heyd, E. N. Brothers, K. N. Kudin, 
 V. N. Staroverov, T. A. Keith, R. Kobayashi, J. Normand, 
 K. Raghavachari, A. P. Rendell, J. C. Burant, S. S. Iyengar, 
 J. Tomasi, M. Cossi, J. M. Millam, M. Klene, C. Adamo, R. Cammi, 
 J. W. Ochterski, R. L. Martin, K. Morokuma, O. Farkas, 
 J. B. Foresman, and D. J. Fox, Gaussian, Inc., Wallingford CT, 2019.
 
 ************************************************
 Gaussian 16:  Fujitsu-Arm-G16RevC.01  3-Jul-2019
                   27-Sep-2023 
 ************************************************
 %mem=24GB
 %nproc=42
 Will use up to   42 processors via shared memory.
 -------------------------------------------------------------
 #P TEST b3lyp/6-311G** EmpiricalDispersion=GD3 counterpoise=2
 -------------------------------------------------------------
 1/38=1,62=2,172=1/1;
 2/12=2,17=6,18=5,40=1/2;
 1/38=1,53=2,62=2,63=1/22;
 3/5=4,6=6,7=101,11=2,25=1,30=1,74=-5,124=31/1,2,3;
 4//1;
 5/5=2,38=5/2;
 6/7=2,8=2,9=2,10=2,28=1/1;
 1/53=2,62=2,63=1/22;
 3/5=7,6=11,7=101,11=2,25=1,30=1,74=-5,82=7,124=31/1,2,3;
 4//1;
 5/5=2,38=5/2;
 6/7=2,8=2,9=2,10=2,28=1/1;
 1/53=2,62=2,63=1/22(-4);
 99/5=1,9=1/99;
 Leave Link    1 at Wed Sep 27 16:58:13 2023, MaxMem=  3221225472 cpu:               6.1 elap:               0.2
 (Enter /home/center/opt/aarch64/apps/gaussian16/c01/g16/l101.exe)
 ----------------------------
 pentacene_A1=0_A2=0_A3=45_t1
 ----------------------------
 Symbolic Z-matrix:
 Charge =  0 Multiplicity = 1 in supermolecule
 Charge =  0 Multiplicity = 1 in fragment      1.
 Charge =  0 Multiplicity = 1 in fragment      2.
 C(Fragment=1)        -0.50395   0.52395  -3.66128 
 C(Fragment=1)         0.52395  -0.50395  -3.66128 
 C(Fragment=1)        -0.98612   1.00612  -4.92359 
 C(Fragment=1)         1.00613  -0.98613  -4.92359 
 C(Fragment=1)        -0.49632   0.51632  -6.09636 
 C(Fragment=1)         0.51632  -0.49632  -6.09636 
 C(Fragment=1)        -0.98447   1.00447  -2.45332 
 C(Fragment=1)        -0.50449   0.52449  -1.21403 
 C(Fragment=1)         1.00447  -0.98447  -2.45332 
 C(Fragment=1)         0.52449  -0.50449  -1.21403 
 H(Fragment=1)        -1.75336   1.77336  -4.92326 
 H(Fragment=1)        -1.75219   1.77219  -2.45393 
 H(Fragment=1)         1.77219  -1.75219  -2.45393 
 H(Fragment=1)         1.77336  -1.75336  -4.92326 
 H(Fragment=1)         0.89056  -0.87056  -7.04253 
 H(Fragment=1)        -0.87056   0.89056  -7.04253 
 C(Fragment=1)        -0.98482   1.00482   0.01 
 C(Fragment=1)        -0.50449   0.52449   1.23403 
 C(Fragment=1)         1.00482  -0.98482   0.01 
 C(Fragment=1)         0.52449  -0.50449   1.23403 
 H(Fragment=1)        -1.75247   1.77247   0.01 
 H(Fragment=1)         1.77247  -1.75247   0.01 
 C(Fragment=1)        -0.98447   1.00447   2.47332 
 C(Fragment=1)        -0.50395   0.52395   3.68128 
 C(Fragment=1)         1.00447  -0.98447   2.47332 
 C(Fragment=1)         0.52395  -0.50395   3.68128 
 H(Fragment=1)        -1.75219   1.77219   2.47393 
 H(Fragment=1)         1.77219  -1.75219   2.47393 
 C(Fragment=1)        -0.98612   1.00612   4.94359 
 C(Fragment=1)        -0.49632   0.51632   6.11636 
 C(Fragment=1)         1.00612  -0.98612   4.94359 
 C(Fragment=1)         0.51632  -0.49632   6.11636 
 H(Fragment=1)        -1.75336   1.77336   4.94326 
 H(Fragment=1)        -0.87056   0.89056   7.06253 
 H(Fragment=1)         0.89056  -0.87056   7.06253 
 H(Fragment=1)         1.77336  -1.75336   4.94326 
 C(Fragment=2)         6.02395   2.52395  -3.66128 
 C(Fragment=2)         4.99605   1.49605  -3.66128 
 C(Fragment=2)         6.50612   3.00612  -4.92359 
 C(Fragment=2)         4.51387   1.01387  -4.92359 
 C(Fragment=2)         6.01632   2.51632  -6.09636 
 C(Fragment=2)         5.00368   1.50368  -6.09636 
 C(Fragment=2)         6.50447   3.00447  -2.45332 
 C(Fragment=2)         6.02449   2.52449  -1.21403 
 C(Fragment=2)         4.51553   1.01553  -2.45332 
 C(Fragment=2)         4.99551   1.49551  -1.21403 
 H(Fragment=2)         7.27336   3.77336  -4.92326 
 H(Fragment=2)         7.27219   3.77219  -2.45393 
 H(Fragment=2)         3.74781   0.24781  -2.45393 
 H(Fragment=2)         3.74664   0.24664  -4.92326 
 H(Fragment=2)         4.62944   1.12944  -7.04253 
 H(Fragment=2)         6.39056   2.89056  -7.04253 
 C(Fragment=2)         6.50482   3.00482   0.01 
 C(Fragment=2)         6.02449   2.52449   1.23403 
 C(Fragment=2)         4.51518   1.01518   0.01 
 C(Fragment=2)         4.99551   1.49551   1.23403 
 H(Fragment=2)         7.27247   3.77247   0.01 
 H(Fragment=2)         3.74753   0.24753   0.01 
 C(Fragment=2)         6.50447   3.00447   2.47332 
 C(Fragment=2)         6.02395   2.52395   3.68128 
 C(Fragment=2)         4.51553   1.01553   2.47332 
 C(Fragment=2)         4.99605   1.49605   3.68128 
 H(Fragment=2)         7.27219   3.77219   2.47393 
 H(Fragment=2)         3.74781   0.24781   2.47393 
 C(Fragment=2)         6.50612   3.00612   4.94359 
 C(Fragment=2)         6.01632   2.51632   6.11636 
 C(Fragment=2)         4.51388   1.01388   4.94359 
 C(Fragment=2)         5.00368   1.50368   6.11636 
 H(Fragment=2)         7.27336   3.77336   4.94326 
 H(Fragment=2)         6.39056   2.89056   7.06253 
 H(Fragment=2)         4.62944   1.12944   7.06253 
 H(Fragment=2)         3.74664   0.24664   4.94326 
 
 ITRead=  0  0  0  0  0  0  0  0  0  0  0  0  0  0  0  0  0  0  0  0
 ITRead=  0  0  0  0  0  0  0  0  0  0  0  0  0  0  0  0  0  0  0  0
 ITRead=  0  0  0  0  0  0  0  0  0  0  0  0  0  0  0  0  0  0  0  0
 ITRead=  0  0  0  0  0  0  0  0  0  0  0  0
 MicOpt= -1 -1 -1 -1 -1 -1 -1 -1 -1 -1 -1 -1 -1 -1 -1 -1 -1 -1 -1 -1
 MicOpt= -1 -1 -1 -1 -1 -1 -1 -1 -1 -1 -1 -1 -1 -1 -1 -1 -1 -1 -1 -1
 MicOpt= -1 -1 -1 -1 -1 -1 -1 -1 -1 -1 -1 -1 -1 -1 -1 -1 -1 -1 -1 -1
 MicOpt= -1 -1 -1 -1 -1 -1 -1 -1 -1 -1 -1 -1
 NAtoms=     72 NQM=       72 NQMF=       0 NMMI=      0 NMMIF=      0
                NMic=       0 NMicF=      0.
                    Isotopes and Nuclear Properties:
 (Nuclear quadrupole moments (NQMom) in fm**2, nuclear magnetic moments (NMagM)
  in nuclear magnetons)

  Atom         1           2           3           4           5           6           7           8           9          10
 IAtWgt=          12          12          12          12          12          12          12          12          12          12
 AtmWgt=  12.0000000  12.0000000  12.0000000  12.0000000  12.0000000  12.0000000  12.0000000  12.0000000  12.0000000  12.0000000
 NucSpn=           0           0           0           0           0           0           0           0           0           0
 AtZEff=   0.0000000   0.0000000   0.0000000   0.0000000   0.0000000   0.0000000   0.0000000   0.0000000   0.0000000   0.0000000
 NQMom=    0.0000000   0.0000000   0.0000000   0.0000000   0.0000000   0.0000000   0.0000000   0.0000000   0.0000000   0.0000000
 NMagM=    0.0000000   0.0000000   0.0000000   0.0000000   0.0000000   0.0000000   0.0000000   0.0000000   0.0000000   0.0000000
 AtZNuc=   6.0000000   6.0000000   6.0000000   6.0000000   6.0000000   6.0000000   6.0000000   6.0000000   6.0000000   6.0000000

  Atom        11          12          13          14          15          16          17          18          19          20
 IAtWgt=           1           1           1           1           1           1          12          12          12          12
 AtmWgt=   1.0078250   1.0078250   1.0078250   1.0078250   1.0078250   1.0078250  12.0000000  12.0000000  12.0000000  12.0000000
 NucSpn=           1           1           1           1           1           1           0           0           0           0
 AtZEff=   0.0000000   0.0000000   0.0000000   0.0000000   0.0000000   0.0000000   0.0000000   0.0000000   0.0000000   0.0000000
 NQMom=    0.0000000   0.0000000   0.0000000   0.0000000   0.0000000   0.0000000   0.0000000   0.0000000   0.0000000   0.0000000
 NMagM=    2.7928460   2.7928460   2.7928460   2.7928460   2.7928460   2.7928460   0.0000000   0.0000000   0.0000000   0.0000000
 AtZNuc=   1.0000000   1.0000000   1.0000000   1.0000000   1.0000000   1.0000000   6.0000000   6.0000000   6.0000000   6.0000000

  Atom        21          22          23          24          25          26          27          28          29          30
 IAtWgt=           1           1          12          12          12          12           1           1          12          12
 AtmWgt=   1.0078250   1.0078250  12.0000000  12.0000000  12.0000000  12.0000000   1.0078250   1.0078250  12.0000000  12.0000000
 NucSpn=           1           1           0           0           0           0           1           1           0           0
 AtZEff=   0.0000000   0.0000000   0.0000000   0.0000000   0.0000000   0.0000000   0.0000000   0.0000000   0.0000000   0.0000000
 NQMom=    0.0000000   0.0000000   0.0000000   0.0000000   0.0000000   0.0000000   0.0000000   0.0000000   0.0000000   0.0000000
 NMagM=    2.7928460   2.7928460   0.0000000   0.0000000   0.0000000   0.0000000   2.7928460   2.7928460   0.0000000   0.0000000
 AtZNuc=   1.0000000   1.0000000   6.0000000   6.0000000   6.0000000   6.0000000   1.0000000   1.0000000   6.0000000   6.0000000

  Atom        31          32          33          34          35          36          37          38          39          40
 IAtWgt=          12          12           1           1           1           1          12          12          12          12
 AtmWgt=  12.0000000  12.0000000   1.0078250   1.0078250   1.0078250   1.0078250  12.0000000  12.0000000  12.0000000  12.0000000
 NucSpn=           0           0           1           1           1           1           0           0           0           0
 AtZEff=   0.0000000   0.0000000   0.0000000   0.0000000   0.0000000   0.0000000   0.0000000   0.0000000   0.0000000   0.0000000
 NQMom=    0.0000000   0.0000000   0.0000000   0.0000000   0.0000000   0.0000000   0.0000000   0.0000000   0.0000000   0.0000000
 NMagM=    0.0000000   0.0000000   2.7928460   2.7928460   2.7928460   2.7928460   0.0000000   0.0000000   0.0000000   0.0000000
 AtZNuc=   6.0000000   6.0000000   1.0000000   1.0000000   1.0000000   1.0000000   6.0000000   6.0000000   6.0000000   6.0000000

  Atom        41          42          43          44          45          46          47          48          49          50
 IAtWgt=          12          12          12          12          12          12           1           1           1           1
 AtmWgt=  12.0000000  12.0000000  12.0000000  12.0000000  12.0000000  12.0000000   1.0078250   1.0078250   1.0078250   1.0078250
 NucSpn=           0           0           0           0           0           0           1           1           1           1
 AtZEff=   0.0000000   0.0000000   0.0000000   0.0000000   0.0000000   0.0000000   0.0000000   0.0000000   0.0000000   0.0000000
 NQMom=    0.0000000   0.0000000   0.0000000   0.0000000   0.0000000   0.0000000   0.0000000   0.0000000   0.0000000   0.0000000
 NMagM=    0.0000000   0.0000000   0.0000000   0.0000000   0.0000000   0.0000000   2.7928460   2.7928460   2.7928460   2.7928460
 AtZNuc=   6.0000000   6.0000000   6.0000000   6.0000000   6.0000000   6.0000000   1.0000000   1.0000000   1.0000000   1.0000000

  Atom        51          52          53          54          55          56          57          58          59          60
 IAtWgt=           1           1          12          12          12          12           1           1          12          12
 AtmWgt=   1.0078250   1.0078250  12.0000000  12.0000000  12.0000000  12.0000000   1.0078250   1.0078250  12.0000000  12.0000000
 NucSpn=           1           1           0           0           0           0           1           1           0           0
 AtZEff=   0.0000000   0.0000000   0.0000000   0.0000000   0.0000000   0.0000000   0.0000000   0.0000000   0.0000000   0.0000000
 NQMom=    0.0000000   0.0000000   0.0000000   0.0000000   0.0000000   0.0000000   0.0000000   0.0000000   0.0000000   0.0000000
 NMagM=    2.7928460   2.7928460   0.0000000   0.0000000   0.0000000   0.0000000   2.7928460   2.7928460   0.0000000   0.0000000
 AtZNuc=   1.0000000   1.0000000   6.0000000   6.0000000   6.0000000   6.0000000   1.0000000   1.0000000   6.0000000   6.0000000

  Atom        61          62          63          64          65          66          67          68          69          70
 IAtWgt=          12          12           1           1          12          12          12          12           1           1
 AtmWgt=  12.0000000  12.0000000   1.0078250   1.0078250  12.0000000  12.0000000  12.0000000  12.0000000   1.0078250   1.0078250
 NucSpn=           0           0           1           1           0           0           0           0           1           1
 AtZEff=   0.0000000   0.0000000   0.0000000   0.0000000   0.0000000   0.0000000   0.0000000   0.0000000   0.0000000   0.0000000
 NQMom=    0.0000000   0.0000000   0.0000000   0.0000000   0.0000000   0.0000000   0.0000000   0.0000000   0.0000000   0.0000000
 NMagM=    0.0000000   0.0000000   2.7928460   2.7928460   0.0000000   0.0000000   0.0000000   0.0000000   2.7928460   2.7928460
 AtZNuc=   6.0000000   6.0000000   1.0000000   1.0000000   6.0000000   6.0000000   6.0000000   6.0000000   1.0000000   1.0000000

  Atom        71          72
 IAtWgt=           1           1
 AtmWgt=   1.0078250   1.0078250
 NucSpn=           1           1
 AtZEff=   0.0000000   0.0000000
 NQMom=    0.0000000   0.0000000
 NMagM=    2.7928460   2.7928460
 AtZNuc=   1.0000000   1.0000000
 Leave Link  101 at Wed Sep 27 16:58:16 2023, MaxMem=  3221225472 cpu:               2.5 elap:               0.1
 (Enter /home/center/opt/aarch64/apps/gaussian16/c01/g16/l202.exe)
 Stoichiometry    C44H28
 Framework group  CS[SG(C4H4),X(C40H24)]
 Deg. of freedom   109
 Full point group                 CS      NOp   2
 Largest Abelian subgroup         CS      NOp   2
 Largest concise Abelian subgroup CS      NOp   2
                         Standard orientation:                         
 ---------------------------------------------------------------------
 Center     Atomic      Atomic             Coordinates (Angstroms)
 Number     Number       Type             X           Y           Z
 ---------------------------------------------------------------------
      1          6           0        1.964269   -2.651650    3.671276
      2          6           0        0.510605   -2.651650    3.671276
      3          6           0        2.646170   -2.651650    4.933593
      4          6           0       -0.171297   -2.651650    4.933593
      5          6           0        1.953483   -2.651650    6.106357
      6          6           0        0.521390   -2.651650    6.106357
      7          6           0        2.643828   -2.651650    2.463318
      8          6           0        1.965033   -2.651650    1.224029
      9          6           0       -0.168954   -2.651650    2.463317
     10          6           0        0.509840   -2.651650    1.224029
     11          1           0        3.731199   -2.651650    4.933260
     12          1           0        3.729545   -2.651650    2.463929
     13          1           0       -1.254670   -2.651650    2.463929
     14          1           0       -1.256325   -2.651650    4.933260
     15          1           0       -0.007859   -2.651650    7.052528
     16          1           0        2.482732   -2.651650    7.052528
     17          6           0        2.644323   -2.651650    0.000000
     18          6           0        1.965033   -2.651650   -1.224029
     19          6           0       -0.169449   -2.651650    0.000000
     20          6           0        0.509840   -2.651650   -1.224029
     21          1           0        3.729946   -2.651650    0.000000
     22          1           0       -1.255071   -2.651650    0.000000
     23          6           0        2.643828   -2.651650   -2.463318
     24          6           0        1.964269   -2.651650   -3.671276
     25          6           0       -0.168954   -2.651650   -2.463317
     26          6           0        0.510605   -2.651650   -3.671276
     27          1           0        3.729545   -2.651650   -2.463929
     28          1           0       -1.254670   -2.651650   -2.463929
     29          6           0        2.646170   -2.651650   -4.933593
     30          6           0        1.953483   -2.651650   -6.106357
     31          6           0       -0.171297   -2.651650   -4.933593
     32          6           0        0.521390   -2.651650   -6.106357
     33          1           0        3.731199   -2.651650   -4.933260
     34          1           0        2.482732   -2.651650   -7.052528
     35          1           0       -0.007859   -2.651650   -7.052528
     36          1           0       -1.256325   -2.651650   -4.933260
     37          6           0       -1.237437    3.378482    3.671276
     38          6           0       -1.237437    1.924818    3.671276
     39          6           0       -1.237437    4.060384    4.933593
     40          6           0       -1.237437    1.242917    4.933593
     41          6           0       -1.237437    3.367697    6.106357
     42          6           0       -1.237437    1.935603    6.106357
     43          6           0       -1.237437    4.058041    2.463318
     44          6           0       -1.237437    3.379247    1.224029
     45          6           0       -1.237437    1.245260    2.463317
     46          6           0       -1.237437    1.924054    1.224029
     47          1           0       -1.237437    5.145412    4.933260
     48          1           0       -1.237437    5.143759    2.463929
     49          1           0       -1.237437    0.159543    2.463929
     50          1           0       -1.237437    0.157889    4.933260
     51          1           0       -1.237437    1.406355    7.052528
     52          1           0       -1.237437    3.896945    7.052528
     53          6           0       -1.237437    4.058536    0.000000
     54          6           0       -1.237437    3.379247   -1.224029
     55          6           0       -1.237437    1.244765    0.000000
     56          6           0       -1.237437    1.924054   -1.224029
     57          1           0       -1.237437    5.144159    0.000000
     58          1           0       -1.237437    0.159143    0.000000
     59          6           0       -1.237437    4.058041   -2.463318
     60          6           0       -1.237437    3.378482   -3.671276
     61          6           0       -1.237437    1.245260   -2.463317
     62          6           0       -1.237437    1.924818   -3.671276
     63          1           0       -1.237437    5.143759   -2.463929
     64          1           0       -1.237437    0.159543   -2.463929
     65          6           0       -1.237437    4.060384   -4.933593
     66          6           0       -1.237437    3.367697   -6.106357
     67          6           0       -1.237437    1.242917   -4.933593
     68          6           0       -1.237437    1.935603   -6.106357
     69          1           0       -1.237437    5.145412   -4.933260
     70          1           0       -1.237437    3.896945   -7.052528
     71          1           0       -1.237437    1.406355   -7.052528
     72          1           0       -1.237437    0.157889   -4.933260
 ---------------------------------------------------------------------
 Rotational constants (GHZ):           0.0914456           0.0563744           0.0368156
 Leave Link  202 at Wed Sep 27 16:58:18 2023, MaxMem=  3221225472 cpu:               0.6 elap:               0.0
 (Enter /home/center/opt/aarch64/apps/gaussian16/c01/g16/l122.exe)
 Counterpoise: doing full-system calculation.
 Leave Link  122 at Wed Sep 27 16:58:20 2023, MaxMem=  3221225472 cpu:               0.3 elap:               0.0
 (Enter /home/center/opt/aarch64/apps/gaussian16/c01/g16/l301.exe)
 Standard basis: 6-311G(d,p) (5D, 7F)
 Ernie: Thresh=  0.10000D-02 Tol=  0.10000D-05 Strict=F.
 There are   528 symmetry adapted cartesian basis functions of A'  symmetry.
 There are   476 symmetry adapted cartesian basis functions of A"  symmetry.
 There are   504 symmetry adapted basis functions of A'  symmetry.
 There are   456 symmetry adapted basis functions of A"  symmetry.
   960 basis functions,  1632 primitive gaussians,  1004 cartesian basis functions
   146 alpha electrons      146 beta electrons
       nuclear repulsion energy      4522.3167564620 Hartrees.
 IExCor=  402 DFT=T Ex+Corr=B3LYP ExCW=0 ScaHFX=  0.200000
 ScaDFX=  0.800000  0.720000  1.000000  0.810000 ScalE2=  1.000000  1.000000
 IRadAn=      5 IRanWt=     -1 IRanGd=            0 ICorTp=0 IEmpDi=131
 NAtoms=   72 NActive=   72 NUniq=   40 SFac= 3.24D+00 NAtFMM=   60 NAOKFM=T Big=F
 Integral buffers will be    131072 words long.
 Raffenetti 2 integral format.
 Two-electron integral symmetry is turned on.
 R6Disp:  Grimme-D3 Dispersion energy=       -0.0735871933 Hartrees.
 Nuclear repulsion after empirical dispersion term =     4522.2431692688 Hartrees.
 Leave Link  301 at Wed Sep 27 16:58:22 2023, MaxMem=  3221225472 cpu:               1.0 elap:               0.1
 (Enter /home/center/opt/aarch64/apps/gaussian16/c01/g16/l302.exe)
 NPDir=0 NMtPBC=     1 NCelOv=     1 NCel=       1 NClECP=     1 NCelD=      1
         NCelK=      1 NCelE2=     1 NClLst=     1 CellRange=     0.0.
 One-electron integrals computed using PRISM.
 One-electron integral symmetry used in STVInt
 NBasis=   960 RedAO= T EigKep=  3.95D-05  NBF=   504   456
 NBsUse=   960 1.00D-06 EigRej= -1.00D+00 NBFU=   504   456
 Precomputing XC quadrature grid using
 IXCGrd= 4 IRadAn=           5 IRanWt=          -1 IRanGd=           0 AccXCQ= 0.00D+00.
 Generated NRdTot=       0 NPtTot=           0 NUsed=           0 NTot=          32
 NSgBfM=   987   987   987   987   987 MxSgAt=    72 MxSgA2=    72.
 Leave Link  302 at Wed Sep 27 16:58:27 2023, MaxMem=  3221225472 cpu:              60.2 elap:               1.9
 (Enter /home/center/opt/aarch64/apps/gaussian16/c01/g16/l303.exe)
 DipDrv:  MaxL=1.
 Leave Link  303 at Wed Sep 27 16:58:29 2023, MaxMem=  3221225472 cpu:              14.0 elap:               0.4
 (Enter /home/center/opt/aarch64/apps/gaussian16/c01/g16/l401.exe)
 ExpMin= 1.03D-01 ExpMax= 4.56D+03 ExpMxC= 6.82D+02 IAcc=3 IRadAn=         5 AccDes= 0.00D+00
 Harris functional with IExCor=  402 and IRadAn=       5 diagonalized for initial guess.
 HarFok:  IExCor=  402 AccDes= 0.00D+00 IRadAn=         5 IDoV= 1 UseB2=F ITyADJ=14
 ICtDFT=  3500011 ScaDFX=  1.000000  1.000000  1.000000  1.000000
 FoFCou: FMM=F IPFlag=           0 FMFlag=      100000 FMFlg1=        2000
         NFxFlg=           0 DoJE=T BraDBF=F KetDBF=T FulRan=T
         wScrn=  0.000000 ICntrl=       500 IOpCl=  0 I1Cent=   200000004 NGrid=           0
         NMat0=    1 NMatS0=      1 NMatT0=    0 NMatD0=    1 NMtDS0=    0 NMtDT0=    0
 Petite list used in FoFCou.
 Harris En= -1694.13538215235    
 JPrj=0 DoOrth=F DoCkMO=F.
 Initial guess orbital symmetries:
       Occupied  (A") (A') (A") (A') (A') (A") (A') (A") (A") (A')
                 (A") (A') (A") (A') (A") (A') (A") (A') (A') (A")
                 (A") (A') (A") (A') (A') (A') (A') (A') (A") (A")
                 (A') (A') (A") (A') (A") (A') (A") (A') (A") (A')
                 (A') (A") (A') (A") (A') (A') (A") (A") (A') (A')
                 (A") (A") (A') (A') (A') (A') (A") (A") (A') (A')
                 (A") (A") (A") (A") (A') (A') (A') (A') (A") (A")
                 (A") (A") (A') (A') (A") (A") (A') (A') (A') (A')
                 (A') (A') (A") (A") (A") (A") (A') (A") (A") (A')
                 (A') (A') (A") (A") (A') (A') (A') (A') (A") (A")
                 (A') (A') (A") (A") (A") (A") (A') (A') (A') (A')
                 (A") (A") (A') (A') (A") (A") (A') (A') (A") (A")
                 (A") (A") (A') (A') (A') (A') (A") (A") (A') (A')
                 (A") (A") (A') (A') (A") (A") (A') (A') (A') (A')
                 (A") (A") (A") (A") (A') (A')
       Virtual   (A') (A') (A") (A") (A") (A") (A') (A') (A') (A')
                 (A") (A") (A') (A') (A") (A") (A') (A") (A') (A')
                 (A') (A') (A") (A") (A') (A') (A") (A") (A') (A')
                 (A") (A') (A") (A") (A") (A') (A") (A') (A') (A')
                 (A") (A") (A') (A') (A") (A') (A") (A') (A') (A')
                 (A") (A') (A') (A") (A') (A') (A') (A") (A") (A")
                 (A') (A") (A") (A") (A') (A') (A") (A") (A") (A')
                 (A') (A") (A') (A') (A") (A') (A") (A") (A') (A")
                 (A') (A') (A") (A') (A') (A') (A") (A') (A") (A")
                 (A') (A') (A") (A') (A") (A') (A") (A') (A") (A")
                 (A") (A') (A") (A') (A") (A') (A') (A') (A') (A")
                 (A') (A') (A") (A') (A') (A") (A') (A") (A') (A")
                 (A') (A") (A') (A") (A") (A") (A') (A") (A') (A")
                 (A') (A") (A") (A") (A') (A') (A") (A') (A") (A')
                 (A") (A') (A') (A') (A') (A") (A') (A') (A") (A')
                 (A') (A') (A") (A") (A') (A") (A') (A") (A') (A")
                 (A') (A") (A") (A') (A") (A') (A") (A') (A") (A')
                 (A') (A") (A') (A") (A") (A') (A') (A") (A') (A")
                 (A') (A") (A') (A") (A') (A") (A') (A') (A') (A")
                 (A') (A') (A") (A") (A') (A') (A") (A') (A") (A')
                 (A") (A") (A') (A") (A') (A") (A') (A') (A") (A')
                 (A') (A") (A") (A") (A') (A') (A") (A") (A") (A')
                 (A') (A") (A") (A') (A") (A") (A') (A') (A') (A')
                 (A") (A') (A') (A") (A") (A') (A') (A") (A') (A")
                 (A") (A") (A') (A") (A') (A') (A") (A') (A') (A')
                 (A") (A') (A") (A") (A") (A') (A') (A") (A") (A')
                 (A') (A") (A') (A') (A") (A") (A") (A') (A') (A")
                 (A') (A") (A') (A") (A") (A") (A') (A') (A") (A')
                 (A') (A") (A") (A') (A') (A') (A") (A") (A') (A")
                 (A') (A') (A") (A') (A") (A") (A") (A') (A") (A")
                 (A") (A') (A") (A') (A') (A') (A') (A") (A') (A')
                 (A') (A") (A") (A') (A") (A") (A") (A") (A') (A')
                 (A') (A') (A") (A') (A') (A') (A") (A") (A') (A")
                 (A") (A") (A') (A") (A') (A") (A') (A') (A") (A')
                 (A") (A') (A') (A") (A') (A") (A') (A") (A') (A")
                 (A') (A') (A") (A') (A") (A') (A") (A') (A') (A')
                 (A') (A") (A') (A') (A") (A") (A") (A") (A") (A")
                 (A") (A") (A') (A") (A') (A") (A') (A') (A') (A')
                 (A") (A') (A') (A") (A') (A') (A') (A") (A') (A')
                 (A") (A") (A') (A") (A') (A") (A") (A') (A") (A')
                 (A") (A') (A") (A') (A") (A') (A') (A") (A") (A')
                 (A") (A') (A') (A') (A") (A') (A') (A") (A") (A')
                 (A') (A') (A') (A") (A') (A') (A") (A") (A') (A")
                 (A") (A") (A") (A') (A") (A') (A") (A') (A') (A")
                 (A") (A") (A') (A") (A") (A') (A') (A") (A') (A")
                 (A') (A') (A') (A') (A") (A") (A') (A") (A') (A")
                 (A") (A') (A') (A") (A') (A") (A") (A') (A") (A')
                 (A") (A') (A") (A") (A') (A") (A') (A') (A") (A')
                 (A") (A') (A') (A') (A") (A') (A") (A") (A") (A")
                 (A') (A') (A") (A") (A") (A") (A") (A") (A') (A')
                 (A') (A") (A') (A") (A') (A') (A') (A') (A') (A")
                 (A") (A') (A') (A') (A") (A") (A") (A') (A") (A')
                 (A") (A') (A") (A') (A") (A") (A') (A') (A") (A')
                 (A") (A') (A') (A") (A") (A') (A') (A") (A") (A')
                 (A") (A") (A') (A') (A') (A') (A") (A") (A") (A")
                 (A') (A") (A') (A") (A") (A') (A') (A") (A') (A')
                 (A") (A') (A') (A") (A') (A") (A") (A') (A') (A')
                 (A") (A") (A") (A") (A') (A') (A") (A") (A') (A')
                 (A') (A') (A') (A") (A') (A") (A") (A') (A') (A')
                 (A') (A") (A') (A') (A") (A') (A") (A') (A") (A")
                 (A") (A') (A") (A') (A") (A') (A") (A') (A") (A')
                 (A") (A') (A') (A") (A") (A') (A') (A") (A") (A')
                 (A") (A') (A") (A') (A") (A') (A') (A") (A') (A")
                 (A') (A') (A') (A") (A') (A") (A') (A') (A") (A")
                 (A') (A") (A") (A") (A") (A') (A") (A') (A") (A')
                 (A') (A') (A') (A') (A") (A') (A') (A") (A') (A")
                 (A') (A") (A") (A") (A') (A") (A') (A') (A") (A')
                 (A') (A") (A") (A') (A') (A") (A") (A") (A') (A')
                 (A") (A") (A') (A') (A') (A") (A') (A") (A") (A")
                 (A') (A') (A') (A") (A") (A') (A') (A') (A") (A")
                 (A') (A') (A") (A") (A') (A") (A') (A") (A') (A")
                 (A') (A") (A") (A") (A') (A') (A') (A') (A") (A")
                 (A') (A') (A") (A") (A') (A') (A') (A") (A') (A")
                 (A') (A") (A') (A") (A") (A') (A") (A') (A') (A')
                 (A") (A") (A') (A') (A") (A") (A') (A') (A') (A')
                 (A") (A') (A") (A') (A") (A") (A') (A') (A") (A")
                 (A") (A") (A') (A') (A") (A") (A') (A") (A') (A")
                 (A') (A') (A") (A") (A') (A') (A') (A') (A") (A")
                 (A") (A") (A') (A') (A") (A") (A') (A') (A') (A')
                 (A") (A") (A") (A") (A') (A') (A') (A') (A") (A")
                 (A') (A') (A") (A") (A') (A') (A") (A") (A') (A')
                 (A') (A") (A') (A")
 The electronic state of the initial guess is 1-A'.
 Leave Link  401 at Wed Sep 27 16:58:34 2023, MaxMem=  3221225472 cpu:             102.9 elap:               2.6
 (Enter /home/center/opt/aarch64/apps/gaussian16/c01/g16/l502.exe)
 Integral symmetry usage will be decided dynamically.
 Closed shell SCF:
 Using DIIS extrapolation, IDIIS=  1040.
 NGot=  3221225472 LenX=  3219153746 LenY=  3218144726
 Requested convergence on RMS density matrix=1.00D-08 within 128 cycles.
 Requested convergence on MAX density matrix=1.00D-06.
 Requested convergence on             energy=1.00D-06.
 No special actions if energy rises.
 Fock matrices will be formed incrementally for  20 cycles.
 Integral accuracy reduced to 1.0D-05 until final iterations.

 Cycle   1  Pass 0  IDiag  1:
 FoFJK:  IHMeth= 1 ICntrl=       0 DoSepK=F KAlg= 0 I1Cent=           0 FoldK=F
 IRaf= 540000000 NMat=       1 IRICut=       1 DoRegI=T DoRafI=F ISym2E= 1 IDoP0=0 IntGTp=1.
 FoFCou: FMM=F IPFlag=           0 FMFlag=      100000 FMFlg1=        2000
         NFxFlg=           0 DoJE=F BraDBF=F KetDBF=F FulRan=T
         wScrn=  0.000000 ICntrl=         0 IOpCl=  0 I1Cent=           0 NGrid=           0
         NMat0=    1 NMatS0=      1 NMatT0=    0 NMatD0=    1 NMtDS0=    0 NMtDT0=    0
 Petite list used in FoFCou.
 E= -1693.15652719878    
 DIIS: error= 4.34D-02 at cycle   1 NSaved=   1.
 NSaved= 1 IEnMin= 1 EnMin= -1693.15652719878     IErMin= 1 ErrMin= 4.34D-02
 ErrMax= 4.34D-02  0.00D+00 EMaxC= 1.00D-01 BMatC= 9.06D-01 BMatP= 9.06D-01
 IDIUse=3 WtCom= 5.66D-01 WtEn= 4.34D-01
 Coeff-Com:  0.100D+01
 Coeff-En:   0.100D+01
 Coeff:      0.100D+01
 Gap=     0.075 Goal=   None    Shift=    0.000
 GapD=    0.075 DampG=0.500 DampE=0.500 DampFc=0.2500 IDamp=-1.
 Damping current iteration by 2.50D-01
 RMSDP=1.77D-03 MaxDP=8.41D-02              OVMax= 1.61D-01

 Cycle   2  Pass 0  IDiag  1:
 RMSU=  4.30D-04    CP:  9.82D-01
 E= -1693.46908839950     Delta-E=       -0.312561200716 Rises=F Damp=T
 DIIS: error= 2.52D-02 at cycle   2 NSaved=   2.
 NSaved= 2 IEnMin= 2 EnMin= -1693.46908839950     IErMin= 2 ErrMin= 2.52D-02
 ErrMax= 2.52D-02  0.00D+00 EMaxC= 1.00D-01 BMatC= 2.99D-01 BMatP= 9.06D-01
 IDIUse=3 WtCom= 7.48D-01 WtEn= 2.52D-01
 Coeff-Com: -0.119D+01 0.219D+01
 Coeff-En:   0.000D+00 0.100D+01
 Coeff:     -0.893D+00 0.189D+01
 Gap=     0.069 Goal=   None    Shift=    0.000
 RMSDP=6.74D-04 MaxDP=3.31D-02 DE=-3.13D-01 OVMax= 8.55D-02

 Cycle   3  Pass 0  IDiag  1:
 RMSU=  4.51D-04    CP:  9.58D-01  2.11D+00
 E= -1694.03978037446     Delta-E=       -0.570691974964 Rises=F Damp=F
 DIIS: error= 5.32D-03 at cycle   3 NSaved=   3.
 NSaved= 3 IEnMin= 3 EnMin= -1694.03978037446     IErMin= 3 ErrMin= 5.32D-03
 ErrMax= 5.32D-03  0.00D+00 EMaxC= 1.00D-01 BMatC= 1.19D-02 BMatP= 2.99D-01
 IDIUse=3 WtCom= 9.47D-01 WtEn= 5.32D-02
 Coeff-Com: -0.267D+00 0.541D+00 0.726D+00
 Coeff-En:   0.000D+00 0.000D+00 0.100D+01
 Coeff:     -0.253D+00 0.512D+00 0.741D+00
 Gap=     0.073 Goal=   None    Shift=    0.000
 RMSDP=2.35D-04 MaxDP=1.32D-02 DE=-5.71D-01 OVMax= 9.27D-02

 Cycle   4  Pass 0  IDiag  1:
 RMSU=  1.93D-04    CP:  9.59D-01  2.06D+00  7.07D-01
 E= -1694.03599283898     Delta-E=        0.003787535483 Rises=F Damp=F
 DIIS: error= 7.64D-03 at cycle   4 NSaved=   4.
 NSaved= 4 IEnMin= 3 EnMin= -1694.03978037446     IErMin= 3 ErrMin= 5.32D-03
 ErrMax= 7.64D-03  0.00D+00 EMaxC= 1.00D-01 BMatC= 1.35D-02 BMatP= 1.19D-02
 IDIUse=3 WtCom= 1.03D-01 WtEn= 8.97D-01
 Coeff-Com: -0.534D-01 0.129D+00 0.514D+00 0.410D+00
 Coeff-En:   0.000D+00 0.000D+00 0.556D+00 0.444D+00
 Coeff:     -0.548D-02 0.133D-01 0.551D+00 0.441D+00
 Gap=     0.070 Goal=   None    Shift=    0.000
 RMSDP=1.45D-04 MaxDP=9.72D-03 DE= 3.79D-03 OVMax= 8.28D-02

 Cycle   5  Pass 0  IDiag  1:
 RMSU=  8.48D-05    CP:  9.59D-01  2.06D+00  7.70D-01  4.08D-01
 E= -1694.05074221625     Delta-E=       -0.014749377266 Rises=F Damp=F
 DIIS: error= 2.31D-03 at cycle   5 NSaved=   5.
 NSaved= 5 IEnMin= 5 EnMin= -1694.05074221625     IErMin= 5 ErrMin= 2.31D-03
 ErrMax= 2.31D-03  0.00D+00 EMaxC= 1.00D-01 BMatC= 1.18D-03 BMatP= 1.19D-02
 IDIUse=3 WtCom= 9.77D-01 WtEn= 2.31D-02
 Coeff-Com: -0.172D-01 0.381D-01 0.258D+00 0.259D+00 0.462D+00
 Coeff-En:   0.000D+00 0.000D+00 0.000D+00 0.491D-01 0.951D+00
 Coeff:     -0.168D-01 0.372D-01 0.252D+00 0.254D+00 0.474D+00
 Gap=     0.070 Goal=   None    Shift=    0.000
 RMSDP=5.39D-05 MaxDP=3.77D-03 DE=-1.47D-02 OVMax= 3.58D-02

 Cycle   6  Pass 0  IDiag  1:
 RMSU=  2.61D-05    CP:  9.59D-01  2.07D+00  7.87D-01  5.11D-01  5.06D-01
 E= -1694.05181334586     Delta-E=       -0.001071129609 Rises=F Damp=F
 DIIS: error= 1.41D-03 at cycle   6 NSaved=   6.
 NSaved= 6 IEnMin= 6 EnMin= -1694.05181334586     IErMin= 6 ErrMin= 1.41D-03
 ErrMax= 1.41D-03  0.00D+00 EMaxC= 1.00D-01 BMatC= 2.86D-04 BMatP= 1.18D-03
 IDIUse=3 WtCom= 9.86D-01 WtEn= 1.41D-02
 Coeff-Com: -0.311D-02 0.535D-02 0.105D+00 0.122D+00 0.348D+00 0.423D+00
 Coeff-En:   0.000D+00 0.000D+00 0.000D+00 0.000D+00 0.219D+00 0.781D+00
 Coeff:     -0.307D-02 0.528D-02 0.103D+00 0.120D+00 0.346D+00 0.428D+00
 Gap=     0.070 Goal=   None    Shift=    0.000
 RMSDP=2.17D-05 MaxDP=1.73D-03 DE=-1.07D-03 OVMax= 1.52D-02

 Cycle   7  Pass 0  IDiag  1:
 RMSU=  9.56D-06    CP:  9.59D-01  2.07D+00  7.91D-01  4.91D-01  5.86D-01
                    CP:  3.21D-01
 E= -1694.05212273237     Delta-E=       -0.000309386516 Rises=F Damp=F
 DIIS: error= 3.84D-04 at cycle   7 NSaved=   7.
 NSaved= 7 IEnMin= 7 EnMin= -1694.05212273237     IErMin= 7 ErrMin= 3.84D-04
 ErrMax= 3.84D-04  0.00D+00 EMaxC= 1.00D-01 BMatC= 2.87D-05 BMatP= 2.86D-04
 IDIUse=3 WtCom= 9.96D-01 WtEn= 3.84D-03
 Coeff-Com: -0.287D-03 0.221D-04 0.561D-01 0.670D-01 0.212D+00 0.305D+00
 Coeff-Com:  0.360D+00
 Coeff-En:   0.000D+00 0.000D+00 0.000D+00 0.000D+00 0.000D+00 0.687D-01
 Coeff-En:   0.931D+00
 Coeff:     -0.286D-03 0.220D-04 0.559D-01 0.668D-01 0.212D+00 0.304D+00
 Coeff:      0.362D+00
 Gap=     0.070 Goal=   None    Shift=    0.000
 RMSDP=6.55D-06 MaxDP=3.58D-04 DE=-3.09D-04 OVMax= 3.34D-03

 Initial convergence to 1.0D-05 achieved.  Increase integral accuracy.
 Cycle   8  Pass 1  IDiag  1:
 E= -1694.05185094366     Delta-E=        0.000271788713 Rises=F Damp=F
 DIIS: error= 5.48D-04 at cycle   1 NSaved=   1.
 NSaved= 1 IEnMin= 1 EnMin= -1694.05185094366     IErMin= 1 ErrMin= 5.48D-04
 ErrMax= 5.48D-04  0.00D+00 EMaxC= 1.00D-01 BMatC= 3.43D-05 BMatP= 3.43D-05
 IDIUse=3 WtCom= 9.95D-01 WtEn= 5.48D-03
 Coeff-Com:  0.100D+01
 Coeff-En:   0.100D+01
 Coeff:      0.100D+01
 Gap=     0.070 Goal=   None    Shift=    0.000
 RMSDP=6.55D-06 MaxDP=3.58D-04 DE= 2.72D-04 OVMax= 2.82D-03

 Cycle   9  Pass 1  IDiag  1:
 RMSU=  2.78D-04    CP:  9.98D-01
 E= -1694.05187749615     Delta-E=       -0.000026552493 Rises=F Damp=F
 DIIS: error= 2.30D-04 at cycle   2 NSaved=   2.
 NSaved= 2 IEnMin= 2 EnMin= -1694.05187749615     IErMin= 2 ErrMin= 2.30D-04
 ErrMax= 2.30D-04  0.00D+00 EMaxC= 1.00D-01 BMatC= 6.10D-06 BMatP= 3.43D-05
 IDIUse=3 WtCom= 9.98D-01 WtEn= 2.30D-03
 Coeff-Com:  0.182D+00 0.818D+00
 Coeff-En:   0.000D+00 0.100D+01
 Coeff:      0.181D+00 0.819D+00
 Gap=     0.070 Goal=   None    Shift=    0.000
 RMSDP=8.90D-06 MaxDP=7.05D-04 DE=-2.66D-05 OVMax= 6.41D-03

 Cycle  10  Pass 1  IDiag  1:
 RMSU=  8.64D-06    CP:  9.98D-01  1.01D+00
 E= -1694.05184906755     Delta-E=        0.000028428603 Rises=F Damp=F
 DIIS: error= 5.23D-04 at cycle   3 NSaved=   3.
 NSaved= 3 IEnMin= 2 EnMin= -1694.05187749615     IErMin= 2 ErrMin= 2.30D-04
 ErrMax= 5.23D-04  0.00D+00 EMaxC= 1.00D-01 BMatC= 2.84D-05 BMatP= 6.10D-06
 IDIUse=3 WtCom= 3.04D-01 WtEn= 6.96D-01
 Coeff-Com: -0.362D-03 0.685D+00 0.316D+00
 Coeff-En:   0.000D+00 0.751D+00 0.249D+00
 Coeff:     -0.110D-03 0.731D+00 0.269D+00
 Gap=     0.070 Goal=   None    Shift=    0.000
 RMSDP=4.97D-06 MaxDP=3.84D-04 DE= 2.84D-05 OVMax= 3.68D-03

 Cycle  11  Pass 1  IDiag  1:
 RMSU=  8.52D-07    CP:  9.98D-01  1.01D+00  4.40D-01
 E= -1694.05188384087     Delta-E=       -0.000034773317 Rises=F Damp=F
 DIIS: error= 8.09D-05 at cycle   4 NSaved=   4.
 NSaved= 4 IEnMin= 4 EnMin= -1694.05188384087     IErMin= 4 ErrMin= 8.09D-05
 ErrMax= 8.09D-05  0.00D+00 EMaxC= 1.00D-01 BMatC= 1.06D-06 BMatP= 6.10D-06
 IDIUse=1 WtCom= 1.00D+00 WtEn= 0.00D+00
 Coeff-Com: -0.369D-02 0.445D+00 0.129D+00 0.429D+00
 Coeff:     -0.369D-02 0.445D+00 0.129D+00 0.429D+00
 Gap=     0.070 Goal=   None    Shift=    0.000
 RMSDP=1.11D-06 MaxDP=9.32D-05 DE=-3.48D-05 OVMax= 7.71D-04

 Cycle  12  Pass 1  IDiag  1:
 RMSU=  3.62D-07    CP:  9.98D-01  1.01D+00  3.22D-01  6.87D-01
 E= -1694.05188508200     Delta-E=       -0.000001241134 Rises=F Damp=F
 DIIS: error= 6.11D-06 at cycle   5 NSaved=   5.
 NSaved= 5 IEnMin= 5 EnMin= -1694.05188508200     IErMin= 5 ErrMin= 6.11D-06
 ErrMax= 6.11D-06  0.00D+00 EMaxC= 1.00D-01 BMatC= 8.40D-09 BMatP= 1.06D-06
 IDIUse=1 WtCom= 1.00D+00 WtEn= 0.00D+00
 Coeff-Com: -0.245D-02 0.278D+00 0.778D-01 0.286D+00 0.361D+00
 Coeff:     -0.245D-02 0.278D+00 0.778D-01 0.286D+00 0.361D+00
 Gap=     0.070 Goal=   None    Shift=    0.000
 RMSDP=1.27D-07 MaxDP=1.10D-05 DE=-1.24D-06 OVMax= 8.86D-05

 Cycle  13  Pass 1  IDiag  1:
 RMSU=  1.09D-07    CP:  9.98D-01  1.01D+00  3.22D-01  7.13D-01  8.36D-01
 E= -1694.05188509158     Delta-E=       -0.000000009578 Rises=F Damp=F
 DIIS: error= 1.95D-06 at cycle   6 NSaved=   6.
 NSaved= 6 IEnMin= 6 EnMin= -1694.05188509158     IErMin= 6 ErrMin= 1.95D-06
 ErrMax= 1.95D-06  0.00D+00 EMaxC= 1.00D-01 BMatC= 7.35D-10 BMatP= 8.40D-09
 IDIUse=1 WtCom= 1.00D+00 WtEn= 0.00D+00
 Coeff-Com: -0.993D-03 0.108D+00 0.294D-01 0.116D+00 0.237D+00 0.510D+00
 Coeff:     -0.993D-03 0.108D+00 0.294D-01 0.116D+00 0.237D+00 0.510D+00
 Gap=     0.070 Goal=   None    Shift=    0.000
 RMSDP=3.72D-08 MaxDP=2.22D-06 DE=-9.58D-09 OVMax= 2.36D-05

 Cycle  14  Pass 1  IDiag  1:
 RMSU=  2.79D-08    CP:  9.98D-01  1.01D+00  3.21D-01  7.05D-01  8.70D-01
                    CP:  8.16D-01
 E= -1694.05188509242     Delta-E=       -0.000000000838 Rises=F Damp=F
 DIIS: error= 3.48D-07 at cycle   7 NSaved=   7.
 NSaved= 7 IEnMin= 7 EnMin= -1694.05188509242     IErMin= 7 ErrMin= 3.48D-07
 ErrMax= 3.48D-07  0.00D+00 EMaxC= 1.00D-01 BMatC= 5.18D-11 BMatP= 7.35D-10
 IDIUse=1 WtCom= 1.00D+00 WtEn= 0.00D+00
 Coeff-Com: -0.400D-03 0.427D-01 0.115D-01 0.466D-01 0.103D+00 0.292D+00
 Coeff-Com:  0.504D+00
 Coeff:     -0.400D-03 0.427D-01 0.115D-01 0.466D-01 0.103D+00 0.292D+00
 Coeff:      0.504D+00
 Gap=     0.070 Goal=   None    Shift=    0.000
 RMSDP=1.07D-08 MaxDP=4.16D-07 DE=-8.38D-10 OVMax= 3.52D-06

 Cycle  15  Pass 1  IDiag  1:
 RMSU=  6.65D-09    CP:  9.98D-01  1.01D+00  3.21D-01  7.07D-01  8.71D-01
                    CP:  8.36D-01  7.28D-01
 E= -1694.05188509246     Delta-E=       -0.000000000047 Rises=F Damp=F
 DIIS: error= 2.14D-07 at cycle   8 NSaved=   8.
 NSaved= 8 IEnMin= 8 EnMin= -1694.05188509246     IErMin= 8 ErrMin= 2.14D-07
 ErrMax= 2.14D-07  0.00D+00 EMaxC= 1.00D-01 BMatC= 1.15D-11 BMatP= 5.18D-11
 IDIUse=1 WtCom= 1.00D+00 WtEn= 0.00D+00
 Coeff-Com: -0.201D-04 0.159D-02 0.316D-03 0.272D-02 0.100D-01 0.880D-01
 Coeff-Com:  0.333D+00 0.564D+00
 Coeff:     -0.201D-04 0.159D-02 0.316D-03 0.272D-02 0.100D-01 0.880D-01
 Coeff:      0.333D+00 0.564D+00
 Gap=     0.070 Goal=   None    Shift=    0.000
 RMSDP=4.33D-09 MaxDP=1.69D-07 DE=-4.73D-11 OVMax= 1.48D-06

 SCF Done:  E(RB3LYP) =  -1694.05188509     A.U. after   15 cycles
            NFock= 15  Conv=0.43D-08     -V/T= 2.0044
 KE= 1.686681034515D+03 PE=-1.297484517516D+04 EE= 5.071869086286D+03
 Leave Link  502 at Wed Sep 27 17:00:14 2023, MaxMem=  3221225472 cpu:            3540.4 elap:              96.9
 (Enter /home/center/opt/aarch64/apps/gaussian16/c01/g16/l601.exe)
 Copying SCF densities to generalized density rwf, IOpCl= 0 IROHF=0.

 **********************************************************************

            Population analysis using the SCF Density.

 **********************************************************************

 Orbital symmetries:
       Occupied  (A") (A') (A') (A") (A") (A') (A") (A') (A') (A')
                 (A") (A') (A") (A') (A") (A') (A") (A') (A") (A')
                 (A') (A") (A") (A') (A") (A') (A") (A') (A") (A')
                 (A") (A') (A') (A") (A') (A') (A") (A') (A") (A')
                 (A") (A') (A") (A') (A') (A') (A") (A") (A') (A')
                 (A") (A") (A') (A') (A') (A") (A') (A") (A') (A')
                 (A") (A") (A") (A") (A') (A') (A') (A') (A") (A")
                 (A") (A") (A') (A') (A") (A') (A") (A') (A') (A')
                 (A') (A") (A") (A') (A") (A") (A') (A') (A") (A")
                 (A') (A') (A') (A") (A") (A') (A") (A") (A') (A')
                 (A') (A") (A') (A') (A') (A") (A') (A') (A") (A')
                 (A") (A') (A") (A") (A") (A") (A") (A") (A') (A')
                 (A') (A') (A') (A') (A") (A") (A') (A") (A") (A")
                 (A') (A") (A') (A') (A") (A") (A') (A') (A') (A')
                 (A") (A") (A") (A") (A') (A')
       Virtual   (A') (A') (A") (A") (A") (A") (A') (A') (A") (A')
                 (A') (A') (A") (A') (A") (A') (A') (A') (A") (A")
                 (A') (A') (A") (A') (A") (A") (A') (A") (A") (A')
                 (A") (A") (A') (A') (A') (A") (A") (A') (A") (A')
                 (A') (A') (A') (A") (A') (A") (A") (A") (A") (A')
                 (A') (A') (A') (A') (A') (A') (A") (A') (A') (A")
                 (A") (A") (A") (A") (A') (A') (A") (A") (A') (A")
                 (A') (A') (A") (A') (A") (A') (A") (A") (A') (A")
                 (A') (A') (A') (A') (A') (A") (A") (A') (A') (A")
                 (A') (A") (A') (A') (A") (A") (A') (A") (A") (A')
                 (A") (A') (A") (A') (A") (A') (A') (A') (A") (A")
                 (A") (A") (A") (A') (A') (A') (A") (A") (A') (A')
                 (A') (A") (A') (A') (A') (A') (A') (A") (A') (A")
                 (A') (A") (A") (A') (A') (A') (A") (A') (A") (A')
                 (A") (A") (A') (A") (A') (A') (A') (A") (A") (A")
                 (A') (A") (A') (A") (A") (A') (A") (A') (A') (A")
                 (A') (A") (A') (A') (A") (A") (A') (A') (A") (A")
                 (A") (A') (A") (A') (A') (A') (A') (A') (A") (A")
                 (A') (A') (A") (A") (A") (A') (A") (A') (A') (A")
                 (A") (A') (A") (A") (A') (A') (A') (A") (A") (A')
                 (A') (A") (A') (A") (A') (A") (A') (A') (A") (A')
                 (A") (A') (A") (A') (A') (A") (A") (A') (A") (A')
                 (A") (A") (A') (A") (A') (A") (A') (A") (A') (A")
                 (A') (A') (A") (A') (A") (A') (A') (A") (A') (A")
                 (A") (A") (A') (A') (A") (A') (A') (A") (A') (A')
                 (A") (A") (A') (A") (A') (A") (A') (A") (A') (A")
                 (A") (A') (A") (A') (A') (A") (A') (A') (A") (A')
                 (A") (A") (A') (A") (A") (A') (A') (A") (A") (A')
                 (A') (A") (A') (A') (A") (A") (A') (A") (A') (A")
                 (A') (A') (A") (A") (A") (A') (A") (A') (A') (A")
                 (A') (A") (A') (A") (A") (A') (A") (A') (A') (A')
                 (A') (A") (A') (A') (A") (A") (A") (A') (A") (A")
                 (A') (A') (A") (A') (A') (A") (A') (A') (A") (A")
                 (A") (A") (A') (A") (A") (A') (A') (A') (A") (A')
                 (A") (A') (A') (A') (A") (A") (A') (A') (A") (A')
                 (A") (A') (A") (A") (A') (A') (A') (A') (A') (A")
                 (A') (A") (A') (A") (A') (A") (A") (A") (A") (A')
                 (A") (A") (A") (A') (A") (A') (A") (A') (A') (A')
                 (A") (A') (A") (A') (A') (A") (A') (A') (A") (A')
                 (A') (A') (A") (A") (A') (A") (A") (A') (A') (A")
                 (A') (A") (A") (A') (A") (A') (A') (A') (A") (A")
                 (A') (A") (A') (A') (A') (A") (A") (A") (A') (A')
                 (A') (A") (A') (A') (A') (A") (A") (A') (A') (A")
                 (A") (A") (A") (A') (A") (A') (A') (A") (A') (A')
                 (A") (A") (A") (A') (A") (A") (A') (A') (A") (A")
                 (A') (A') (A") (A') (A") (A') (A') (A") (A") (A')
                 (A") (A") (A') (A') (A') (A") (A') (A") (A') (A')
                 (A") (A") (A') (A") (A') (A") (A") (A') (A") (A')
                 (A') (A") (A") (A') (A') (A') (A") (A") (A") (A')
                 (A") (A") (A') (A") (A") (A") (A") (A") (A') (A')
                 (A") (A') (A') (A') (A") (A') (A') (A') (A") (A")
                 (A') (A') (A') (A") (A') (A") (A') (A") (A') (A")
                 (A") (A") (A') (A") (A') (A') (A") (A') (A') (A")
                 (A") (A') (A") (A") (A') (A") (A") (A') (A') (A')
                 (A") (A") (A') (A') (A") (A') (A") (A') (A") (A")
                 (A") (A') (A") (A') (A") (A') (A') (A") (A') (A')
                 (A") (A') (A") (A') (A") (A') (A') (A") (A") (A")
                 (A') (A') (A') (A') (A') (A") (A') (A') (A") (A')
                 (A") (A") (A") (A') (A") (A') (A') (A") (A') (A")
                 (A") (A') (A") (A") (A') (A") (A') (A") (A') (A')
                 (A') (A") (A') (A") (A') (A') (A") (A') (A") (A')
                 (A') (A") (A') (A") (A') (A') (A") (A') (A') (A")
                 (A") (A') (A") (A') (A") (A') (A") (A') (A") (A")
                 (A") (A') (A") (A') (A') (A') (A') (A") (A') (A")
                 (A') (A") (A") (A") (A') (A") (A') (A') (A") (A')
                 (A") (A') (A') (A") (A') (A') (A') (A') (A") (A")
                 (A") (A") (A') (A') (A") (A") (A') (A') (A') (A")
                 (A') (A") (A') (A") (A") (A') (A") (A") (A') (A')
                 (A') (A') (A") (A") (A') (A") (A') (A") (A") (A")
                 (A') (A') (A") (A') (A') (A') (A") (A') (A") (A")
                 (A') (A') (A") (A") (A') (A") (A') (A") (A') (A")
                 (A') (A") (A") (A") (A') (A') (A') (A') (A") (A")
                 (A') (A') (A") (A') (A") (A') (A') (A') (A") (A")
                 (A") (A') (A') (A") (A") (A') (A') (A") (A') (A")
                 (A') (A") (A') (A") (A') (A') (A") (A') (A') (A')
                 (A") (A') (A") (A') (A") (A") (A') (A') (A") (A")
                 (A") (A') (A") (A") (A') (A") (A') (A") (A') (A")
                 (A') (A') (A") (A") (A') (A') (A') (A') (A") (A")
                 (A") (A") (A') (A') (A") (A') (A") (A') (A') (A')
                 (A") (A") (A") (A") (A') (A') (A') (A") (A') (A")
                 (A') (A') (A") (A') (A") (A') (A") (A') (A") (A')
                 (A') (A") (A') (A")
 The electronic state is 1-A'.
 Alpha  occ. eigenvalues --  -10.19405 -10.19405 -10.19325 -10.19325 -10.19322
 Alpha  occ. eigenvalues --  -10.19322 -10.19220 -10.19220 -10.18424 -10.18393
 Alpha  occ. eigenvalues --  -10.18367 -10.18367 -10.18364 -10.18363 -10.18336
 Alpha  occ. eigenvalues --  -10.18336 -10.18335 -10.18334 -10.18277 -10.18277
 Alpha  occ. eigenvalues --  -10.18273 -10.18272 -10.18268 -10.18268 -10.18239
 Alpha  occ. eigenvalues --  -10.18239 -10.18202 -10.18202 -10.18144 -10.18144
 Alpha  occ. eigenvalues --  -10.17369 -10.17369 -10.17349 -10.17334 -10.17334
 Alpha  occ. eigenvalues --  -10.17304 -10.17304 -10.17298 -10.17270 -10.17270
 Alpha  occ. eigenvalues --  -10.17266 -10.17266 -10.17195 -10.17195  -0.89783
 Alpha  occ. eigenvalues --   -0.88743  -0.88297  -0.87286  -0.85977  -0.84978
 Alpha  occ. eigenvalues --   -0.82841  -0.81848  -0.80274  -0.79212  -0.78946
 Alpha  occ. eigenvalues --   -0.78757  -0.77957  -0.77725  -0.76429  -0.75409
 Alpha  occ. eigenvalues --   -0.74679  -0.73685  -0.73337  -0.72323  -0.69636
 Alpha  occ. eigenvalues --   -0.68612  -0.67771  -0.66773  -0.63162  -0.62792
 Alpha  occ. eigenvalues --   -0.62151  -0.61809  -0.61572  -0.60484  -0.60417
 Alpha  occ. eigenvalues --   -0.59739  -0.59355  -0.58712  -0.58115  -0.57124
 Alpha  occ. eigenvalues --   -0.53136  -0.53013  -0.52717  -0.52142  -0.51983
 Alpha  occ. eigenvalues --   -0.51731  -0.50096  -0.49063  -0.48929  -0.47964
 Alpha  occ. eigenvalues --   -0.47589  -0.46607  -0.46587  -0.46063  -0.45904
 Alpha  occ. eigenvalues --   -0.45485  -0.44977  -0.44903  -0.44348  -0.43619
 Alpha  occ. eigenvalues --   -0.43374  -0.43027  -0.42606  -0.42281  -0.42000
 Alpha  occ. eigenvalues --   -0.41979  -0.41799  -0.41187  -0.41127  -0.40975
 Alpha  occ. eigenvalues --   -0.40819  -0.40793  -0.40111  -0.40017  -0.39834
 Alpha  occ. eigenvalues --   -0.39006  -0.38622  -0.37617  -0.37166  -0.36749
 Alpha  occ. eigenvalues --   -0.36170  -0.35984  -0.35805  -0.34938  -0.34524
 Alpha  occ. eigenvalues --   -0.34249  -0.33521  -0.33520  -0.33333  -0.33234
 Alpha  occ. eigenvalues --   -0.32712  -0.32373  -0.31739  -0.31003  -0.30048
 Alpha  occ. eigenvalues --   -0.29076  -0.28816  -0.27856  -0.27048  -0.26042
 Alpha  occ. eigenvalues --   -0.24778  -0.23803  -0.23025  -0.22002  -0.18320
 Alpha  occ. eigenvalues --   -0.17261
 Alpha virt. eigenvalues --   -0.10219  -0.09165  -0.04931  -0.03895  -0.03196
 Alpha virt. eigenvalues --   -0.02183  -0.00690   0.00411   0.01603   0.01614
 Alpha virt. eigenvalues --    0.02121   0.02620   0.02894   0.03498   0.03808
 Alpha virt. eigenvalues --    0.03887   0.04350   0.05256   0.05451   0.05752
 Alpha virt. eigenvalues --    0.05914   0.06473   0.07055   0.07557   0.07782
 Alpha virt. eigenvalues --    0.07931   0.08659   0.08849   0.09347   0.09380
 Alpha virt. eigenvalues --    0.10528   0.10811   0.10863   0.11140   0.11642
 Alpha virt. eigenvalues --    0.12495   0.12781   0.13115   0.13186   0.13898
 Alpha virt. eigenvalues --    0.14653   0.14927   0.15785   0.16363   0.17599
 Alpha virt. eigenvalues --    0.18121   0.18305   0.18647   0.19654   0.19758
 Alpha virt. eigenvalues --    0.19988   0.20219   0.22325   0.22641   0.23568
 Alpha virt. eigenvalues --    0.23809   0.23913   0.24127   0.25117   0.25179
 Alpha virt. eigenvalues --    0.25996   0.26184   0.27061   0.27307   0.27710
 Alpha virt. eigenvalues --    0.27908   0.28104   0.28249   0.28643   0.28853
 Alpha virt. eigenvalues --    0.28863   0.29292   0.29859   0.29960   0.30169
 Alpha virt. eigenvalues --    0.30343   0.30785   0.31191   0.31377   0.31772
 Alpha virt. eigenvalues --    0.32890   0.34232   0.34286   0.35105   0.35934
 Alpha virt. eigenvalues --    0.36031   0.36516   0.36703   0.37054   0.37118
 Alpha virt. eigenvalues --    0.37258   0.37492   0.37513   0.37811   0.38061
 Alpha virt. eigenvalues --    0.38187   0.38368   0.38385   0.38725   0.39133
 Alpha virt. eigenvalues --    0.39206   0.39315   0.39517   0.39678   0.40144
 Alpha virt. eigenvalues --    0.40225   0.40471   0.40696   0.40936   0.41449
 Alpha virt. eigenvalues --    0.41858   0.41916   0.42100   0.42121   0.42325
 Alpha virt. eigenvalues --    0.42398   0.42696   0.42733   0.43163   0.43467
 Alpha virt. eigenvalues --    0.43593   0.43633   0.44256   0.44628   0.44854
 Alpha virt. eigenvalues --    0.45137   0.45195   0.45478   0.45724   0.45811
 Alpha virt. eigenvalues --    0.45873   0.45976   0.46105   0.46336   0.46628
 Alpha virt. eigenvalues --    0.46823   0.46908   0.47186   0.47286   0.47471
 Alpha virt. eigenvalues --    0.47491   0.48199   0.48294   0.48537   0.48776
 Alpha virt. eigenvalues --    0.48994   0.49315   0.49321   0.49401   0.49686
 Alpha virt. eigenvalues --    0.50189   0.50227   0.50854   0.50856   0.51743
 Alpha virt. eigenvalues --    0.51847   0.51900   0.52023   0.52743   0.53155
 Alpha virt. eigenvalues --    0.53847   0.53937   0.54649   0.54859   0.55734
 Alpha virt. eigenvalues --    0.56061   0.56086   0.57454   0.57464   0.57710
 Alpha virt. eigenvalues --    0.58601   0.58688   0.59147   0.59552   0.59915
 Alpha virt. eigenvalues --    0.60440   0.60737   0.61035   0.61328   0.61416
 Alpha virt. eigenvalues --    0.61541   0.61688   0.62183   0.62335   0.62510
 Alpha virt. eigenvalues --    0.62706   0.63015   0.63180   0.63609   0.63624
 Alpha virt. eigenvalues --    0.64023   0.64388   0.64401   0.64883   0.65111
 Alpha virt. eigenvalues --    0.65460   0.65819   0.65941   0.66029   0.66858
 Alpha virt. eigenvalues --    0.67501   0.67735   0.68961   0.69771   0.70279
 Alpha virt. eigenvalues --    0.70385   0.70632   0.71571   0.71603   0.71827
 Alpha virt. eigenvalues --    0.72348   0.72513   0.73343   0.73573   0.73984
 Alpha virt. eigenvalues --    0.74012   0.74445   0.74856   0.75611   0.76304
 Alpha virt. eigenvalues --    0.76771   0.77120   0.77339   0.77352   0.77728
 Alpha virt. eigenvalues --    0.78246   0.78783   0.79387   0.79399   0.79959
 Alpha virt. eigenvalues --    0.80138   0.80565   0.80604   0.81201   0.81672
 Alpha virt. eigenvalues --    0.82085   0.82212   0.82670   0.82861   0.82909
 Alpha virt. eigenvalues --    0.83238   0.83900   0.83982   0.84383   0.84665
 Alpha virt. eigenvalues --    0.84839   0.85765   0.85930   0.86001   0.87346
 Alpha virt. eigenvalues --    0.88288   0.89370   0.89472   0.89498   0.90899
 Alpha virt. eigenvalues --    0.90926   0.91497   0.91678   0.92979   0.93147
 Alpha virt. eigenvalues --    0.93482   0.94331   0.95434   0.95481   0.95578
 Alpha virt. eigenvalues --    0.95852   0.95893   0.96449   0.97336   0.97340
 Alpha virt. eigenvalues --    0.97857   0.98308   0.98705   0.99127   0.99141
 Alpha virt. eigenvalues --    0.99640   0.99973   1.01026   1.01785   1.02646
 Alpha virt. eigenvalues --    1.02886   1.02917   1.03064   1.03629   1.03719
 Alpha virt. eigenvalues --    1.04034   1.04200   1.05204   1.05312   1.05413
 Alpha virt. eigenvalues --    1.05873   1.06031   1.06131   1.06278   1.06617
 Alpha virt. eigenvalues --    1.07205   1.07570   1.07799   1.08048   1.08251
 Alpha virt. eigenvalues --    1.08659   1.09037   1.09345   1.09396   1.09791
 Alpha virt. eigenvalues --    1.10161   1.10628   1.11399   1.12003   1.12648
 Alpha virt. eigenvalues --    1.12941   1.13251   1.13746   1.13831   1.14109
 Alpha virt. eigenvalues --    1.14690   1.15102   1.15271   1.15644   1.15906
 Alpha virt. eigenvalues --    1.17352   1.17987   1.18069   1.19397   1.20220
 Alpha virt. eigenvalues --    1.20957   1.21692   1.22695   1.22834   1.23337
 Alpha virt. eigenvalues --    1.24220   1.25332   1.27794   1.28272   1.29910
 Alpha virt. eigenvalues --    1.29921   1.30685   1.31953   1.32310   1.32992
 Alpha virt. eigenvalues --    1.33718   1.34757   1.34986   1.36060   1.37823
 Alpha virt. eigenvalues --    1.38468   1.39309   1.39936   1.40070   1.40200
 Alpha virt. eigenvalues --    1.40451   1.40485   1.40817   1.41375   1.42447
 Alpha virt. eigenvalues --    1.43266   1.43420   1.44058   1.44488   1.45026
 Alpha virt. eigenvalues --    1.45401   1.46004   1.46123   1.46780   1.46944
 Alpha virt. eigenvalues --    1.47472   1.47733   1.48290   1.48929   1.49237
 Alpha virt. eigenvalues --    1.49368   1.49501   1.49929   1.50050   1.50307
 Alpha virt. eigenvalues --    1.50857   1.51290   1.51343   1.52373   1.52938
 Alpha virt. eigenvalues --    1.53206   1.54079   1.54225   1.54404   1.54668
 Alpha virt. eigenvalues --    1.54852   1.54894   1.54942   1.55095   1.55536
 Alpha virt. eigenvalues --    1.56571   1.56703   1.57373   1.57787   1.57792
 Alpha virt. eigenvalues --    1.58910   1.59613   1.60196   1.60400   1.60432
 Alpha virt. eigenvalues --    1.60942   1.61450   1.62542   1.63076   1.63584
 Alpha virt. eigenvalues --    1.64276   1.65218   1.66153   1.66493   1.67452
 Alpha virt. eigenvalues --    1.69376   1.69397   1.69526   1.70384   1.70504
 Alpha virt. eigenvalues --    1.70752   1.71289   1.71784   1.72087   1.72262
 Alpha virt. eigenvalues --    1.72815   1.72891   1.72983   1.73387   1.73642
 Alpha virt. eigenvalues --    1.73700   1.73941   1.73997   1.75000   1.75059
 Alpha virt. eigenvalues --    1.77169   1.78210   1.78747   1.79010   1.79471
 Alpha virt. eigenvalues --    1.80004   1.80250   1.80297   1.80530   1.81332
 Alpha virt. eigenvalues --    1.81460   1.81617   1.81870   1.82441   1.82557
 Alpha virt. eigenvalues --    1.82813   1.84245   1.84443   1.84547   1.85140
 Alpha virt. eigenvalues --    1.85555   1.86316   1.87122   1.87171   1.87393
 Alpha virt. eigenvalues --    1.87729   1.88008   1.88188   1.88339   1.88436
 Alpha virt. eigenvalues --    1.88584   1.88901   1.89049   1.89965   1.90926
 Alpha virt. eigenvalues --    1.91144   1.91344   1.91469   1.92287   1.92387
 Alpha virt. eigenvalues --    1.92511   1.92805   1.92957   1.93173   1.93332
 Alpha virt. eigenvalues --    1.93424   1.93726   1.94092   1.94427   1.94696
 Alpha virt. eigenvalues --    1.95413   1.95554   1.95805   1.96087   1.97531
 Alpha virt. eigenvalues --    1.98092   1.99642   2.00160   2.00353   2.00411
 Alpha virt. eigenvalues --    2.00677   2.01112   2.01937   2.02673   2.03811
 Alpha virt. eigenvalues --    2.04285   2.05475   2.07090   2.07853   2.08774
 Alpha virt. eigenvalues --    2.08984   2.09493   2.10088   2.10450   2.10589
 Alpha virt. eigenvalues --    2.10670   2.12042   2.12836   2.13945   2.14865
 Alpha virt. eigenvalues --    2.15440   2.15764   2.16521   2.16872   2.17203
 Alpha virt. eigenvalues --    2.17762   2.19467   2.20441   2.21246   2.21504
 Alpha virt. eigenvalues --    2.21869   2.22348   2.22356   2.23157   2.23546
 Alpha virt. eigenvalues --    2.24381   2.24718   2.25201   2.26365   2.26528
 Alpha virt. eigenvalues --    2.26906   2.27315   2.27407   2.27868   2.27923
 Alpha virt. eigenvalues --    2.28053   2.29043   2.29637   2.30676   2.31052
 Alpha virt. eigenvalues --    2.33345   2.34709   2.35490   2.36388   2.38969
 Alpha virt. eigenvalues --    2.39368   2.39930   2.40256   2.40813   2.41490
 Alpha virt. eigenvalues --    2.42674   2.42775   2.43802   2.44042   2.45486
 Alpha virt. eigenvalues --    2.45685   2.46229   2.46388   2.46667   2.48494
 Alpha virt. eigenvalues --    2.51350   2.52106   2.52470   2.53416   2.53473
 Alpha virt. eigenvalues --    2.53709   2.54418   2.54666   2.55581   2.55840
 Alpha virt. eigenvalues --    2.56250   2.57552   2.58497   2.59231   2.59457
 Alpha virt. eigenvalues --    2.59561   2.59997   2.60218   2.60375   2.60541
 Alpha virt. eigenvalues --    2.60692   2.61157   2.61349   2.61681   2.62396
 Alpha virt. eigenvalues --    2.62641   2.62878   2.63717   2.64099   2.64133
 Alpha virt. eigenvalues --    2.64324   2.65271   2.65410   2.66073   2.66872
 Alpha virt. eigenvalues --    2.67076   2.67177   2.67735   2.67835   2.68258
 Alpha virt. eigenvalues --    2.68353   2.68745   2.68999   2.69158   2.69384
 Alpha virt. eigenvalues --    2.69491   2.69577   2.69885   2.70147   2.70506
 Alpha virt. eigenvalues --    2.70715   2.70929   2.71508   2.71717   2.72642
 Alpha virt. eigenvalues --    2.73321   2.74346   2.74571   2.75024   2.75101
 Alpha virt. eigenvalues --    2.76039   2.76591   2.76866   2.77385   2.77552
 Alpha virt. eigenvalues --    2.77662   2.78254   2.78384   2.78540   2.78637
 Alpha virt. eigenvalues --    2.79687   2.79994   2.80405   2.80529   2.81028
 Alpha virt. eigenvalues --    2.82127   2.82862   2.83348   2.84342   2.86008
 Alpha virt. eigenvalues --    2.86377   2.86460   2.86956   2.87875   2.88066
 Alpha virt. eigenvalues --    2.88295   2.90623   2.90838   2.91425   2.91738
 Alpha virt. eigenvalues --    2.92479   2.92773   2.93512   2.94784   2.94884
 Alpha virt. eigenvalues --    2.95298   2.96145   2.96429   2.96482   2.96951
 Alpha virt. eigenvalues --    2.98884   3.00118   3.00328   3.03566   3.03742
 Alpha virt. eigenvalues --    3.05413   3.06536   3.07212   3.08211   3.08518
 Alpha virt. eigenvalues --    3.09803   3.10315   3.15862   3.15896   3.16504
 Alpha virt. eigenvalues --    3.16827   3.16952   3.17600   3.19734   3.19964
 Alpha virt. eigenvalues --    3.20727   3.21189   3.23326   3.24299   3.28804
 Alpha virt. eigenvalues --    3.29412   3.30014   3.30416   3.31624   3.32467
 Alpha virt. eigenvalues --    3.34783   3.35212   3.35587   3.35969   3.36336
 Alpha virt. eigenvalues --    3.36684   3.36687   3.36939   3.37816   3.38783
 Alpha virt. eigenvalues --    3.39738   3.40718   3.41224   3.42567   3.44773
 Alpha virt. eigenvalues --    3.45309   3.45720   3.46202   3.47873   3.48125
 Alpha virt. eigenvalues --    3.49011   3.49245   3.50323   3.51107   3.52734
 Alpha virt. eigenvalues --    3.54377   3.57126   3.58290   3.58569   3.59491
 Alpha virt. eigenvalues --    3.61562   3.62355   3.62513   3.63023   3.63449
 Alpha virt. eigenvalues --    3.63550   3.65016   3.65670   3.65814   3.66802
 Alpha virt. eigenvalues --    3.67449   3.67610   3.68799   3.68814   4.00115
 Alpha virt. eigenvalues --    4.00168   4.01245   4.01281   4.01691   4.01912
 Alpha virt. eigenvalues --    4.02526   4.02867   4.15818   4.16397   4.17066
 Alpha virt. eigenvalues --    4.17534   4.17866   4.19292   4.20988   4.22111
 Alpha virt. eigenvalues --    4.22147   4.22534   4.23416   4.23651   4.25200
 Alpha virt. eigenvalues --    4.26953   4.38150   4.39724   4.61875   4.63675
 Alpha virt. eigenvalues --    4.78747   4.79350   4.79939   4.80206   4.80518
 Alpha virt. eigenvalues --    4.81499   4.82188   4.82594   4.83698   4.84266
 Alpha virt. eigenvalues --   23.38864  23.40466  23.54335  23.55564  23.68984
 Alpha virt. eigenvalues --   23.69938  23.77046  23.78310  23.80228  23.81103
 Alpha virt. eigenvalues --   23.81324  23.82409  23.85829  23.86863  23.88794
 Alpha virt. eigenvalues --   23.88879  23.89809  23.89875  23.91897  23.93027
 Alpha virt. eigenvalues --   23.97134  23.97944  23.98252  23.98995  24.08642
 Alpha virt. eigenvalues --   24.09499  24.09722  24.10107  24.10559  24.11162
 Alpha virt. eigenvalues --   24.11837  24.13012  24.13370  24.13960  24.14547
 Alpha virt. eigenvalues --   24.15243  24.15383  24.15416  24.16332  24.16365
 Alpha virt. eigenvalues --   24.20059  24.20105  24.21134  24.21184
          Condensed to atoms (all electrons):
 Mulliken charges:
               1
     1  C   -0.059361
     2  C   -0.040744
     3  C   -0.051873
     4  C   -0.076270
     5  C   -0.090084
     6  C   -0.086708
     7  C   -0.009174
     8  C   -0.056150
     9  C   -0.046818
    10  C   -0.033617
    11  H    0.084059
    12  H    0.077085
    13  H    0.077419
    14  H    0.085749
    15  H    0.096658
    16  H    0.096404
    17  C   -0.013109
    18  C   -0.056150
    19  C   -0.050079
    20  C   -0.033617
    21  H    0.075743
    22  H    0.076156
    23  C   -0.009174
    24  C   -0.059361
    25  C   -0.046818
    26  C   -0.040744
    27  H    0.077085
    28  H    0.077419
    29  C   -0.051873
    30  C   -0.090084
    31  C   -0.076270
    32  C   -0.086708
    33  H    0.084059
    34  H    0.096404
    35  H    0.096658
    36  H    0.085749
    37  C   -0.035598
    38  C   -0.096549
    39  C   -0.060474
    40  C   -0.048601
    41  C   -0.088407
    42  C   -0.109300
    43  C   -0.025705
    44  C   -0.025573
    45  C   -0.010882
    46  C   -0.098525
    47  H    0.079839
    48  H    0.071884
    49  H    0.096821
    50  H    0.098446
    51  H    0.089045
    52  H    0.092385
    53  C   -0.029669
    54  C   -0.025573
    55  C   -0.015557
    56  C   -0.098525
    57  H    0.070488
    58  H    0.095263
    59  C   -0.025705
    60  C   -0.035598
    61  C   -0.010882
    62  C   -0.096549
    63  H    0.071884
    64  H    0.096821
    65  C   -0.060474
    66  C   -0.088407
    67  C   -0.048601
    68  C   -0.109300
    69  H    0.079839
    70  H    0.092385
    71  H    0.089045
    72  H    0.098446
 Sum of Mulliken charges =   0.00000
 Mulliken charges with hydrogens summed into heavy atoms:
               1
     1  C   -0.059361
     2  C   -0.040744
     3  C    0.032185
     4  C    0.009479
     5  C    0.006320
     6  C    0.009951
     7  C    0.067911
     8  C   -0.056150
     9  C    0.030601
    10  C   -0.033617
    17  C    0.062634
    18  C   -0.056150
    19  C    0.026077
    20  C   -0.033617
    23  C    0.067911
    24  C   -0.059361
    25  C    0.030601
    26  C   -0.040744
    29  C    0.032185
    30  C    0.006320
    31  C    0.009479
    32  C    0.009951
    37  C   -0.035598
    38  C   -0.096549
    39  C    0.019365
    40  C    0.049844
    41  C    0.003978
    42  C   -0.020255
    43  C    0.046178
    44  C   -0.025573
    45  C    0.085939
    46  C   -0.098525
    53  C    0.040819
    54  C   -0.025573
    55  C    0.079706
    56  C   -0.098525
    59  C    0.046178
    60  C   -0.035598
    61  C    0.085939
    62  C   -0.096549
    65  C    0.019365
    66  C    0.003978
    67  C    0.049844
    68  C   -0.020255
         Mulliken charges condensed to fragments:
      1      0.021862
      2     -0.021862
 Electronic spatial extent (au):  <R**2>=          27525.8120
 Charge=              0.0000 electrons
 Dipole moment (field-independent basis, Debye):
    X=              0.9277    Y=             -0.8410    Z=              0.0000  Tot=              1.2522
 Quadrupole moment (field-independent basis, Debye-Ang):
   XX=           -246.2788   YY=           -248.2814   ZZ=           -218.9359
   XY=             -0.5485   XZ=              0.0000   YZ=              0.0000
 Traceless Quadrupole moment (field-independent basis, Debye-Ang):
   XX=             -8.4468   YY=            -10.4493   ZZ=             18.8961
   XY=             -0.5485   XZ=              0.0000   YZ=              0.0000
 Octapole moment (field-independent basis, Debye-Ang**2):
  XXX=            102.4507  YYY=            188.6073  ZZZ=              0.0000  XYY=            -24.4372
  XXY=            -73.5247  XXZ=              0.0000  XZZ=             16.6585  YZZ=            -20.9083
  YYZ=              0.0000  XYZ=              0.0000
 Hexadecapole moment (field-independent basis, Debye-Ang**3):
 XXXX=          -3525.6822 YYYY=         -11734.7561 ZZZZ=         -20982.5436 XXXY=           2423.1764
 XXXZ=              0.0000 YYYX=           2436.5045 YYYZ=              0.0000 ZZZX=              0.0000
 ZZZY=              0.0000 XXYY=          -2625.5764 XXZZ=          -4502.4285 YYZZ=          -5728.6578
 XXYZ=              0.0000 YYXZ=              0.0000 ZZXY=            712.1252
 N-N= 4.522243169269D+03 E-N=-1.297484513851D+04  KE= 1.686681034515D+03
 Symmetry A'   KE= 9.134152599305D+02
 Symmetry A"   KE= 7.732657745847D+02
 No NMR shielding tensors so no spin-rotation constants.
 Leave Link  601 at Wed Sep 27 17:00:17 2023, MaxMem=  3221225472 cpu:              52.1 elap:               1.4
 (Enter /home/center/opt/aarch64/apps/gaussian16/c01/g16/l122.exe)
 CPIOFr:  IOpCl= 0 IRwI=-1 IRwCP=  731 ICalc= -1 LCPTot=     1419224 Len1MO=     3708034 IndFrg=     1419224
 CPIOFr:  IOpCl= 0 IRwI=-1 IRwCP=  731 ICalc=  0 LCPTot=     1419224 Len1MO=     3708034 IndFrg=     5127258
 Counterpoise: doing calculation for fragment   1 using the basis set of the full-system, NewBq=T
 Leave Link  122 at Wed Sep 27 17:00:20 2023, MaxMem=  3221225472 cpu:               8.3 elap:               0.3
 (Enter /home/center/opt/aarch64/apps/gaussian16/c01/g16/l301.exe)
 Basis read from rwf:  (5D, 7F)
 No pseudopotential information found on rwf file.
 There are   528 symmetry adapted cartesian basis functions of A'  symmetry.
 There are   476 symmetry adapted cartesian basis functions of A"  symmetry.
 There are   504 symmetry adapted basis functions of A'  symmetry.
 There are   456 symmetry adapted basis functions of A"  symmetry.
   960 basis functions,  1632 primitive gaussians,  1004 cartesian basis functions
    73 alpha electrons       73 beta electrons
       nuclear repulsion energy      1494.3575060094 Hartrees.
 IExCor=  402 DFT=T Ex+Corr=B3LYP ExCW=0 ScaHFX=  0.200000
 ScaDFX=  0.800000  0.720000  1.000000  0.810000 ScalE2=  1.000000  1.000000
 IRadAn=      5 IRanWt=     -1 IRanGd=            0 ICorTp=0 IEmpDi=131
 NAtoms=   72 NActive=   72 NUniq=   40 SFac= 3.24D+00 NAtFMM=   60 NAOKFM=T Big=F
 Integral buffers will be    131072 words long.
 Raffenetti 2 integral format.
 Two-electron integral symmetry is turned on.
 R6Disp:  Grimme-D3 Dispersion energy=       -0.0303938888 Hartrees.
 Nuclear repulsion after empirical dispersion term =     1494.3271121206 Hartrees.
 No density basis found on file    718.
 Leave Link  301 at Wed Sep 27 17:00:22 2023, MaxMem=  3221225472 cpu:               2.7 elap:               0.1
 (Enter /home/center/opt/aarch64/apps/gaussian16/c01/g16/l302.exe)
 NPDir=0 NMtPBC=     1 NCelOv=     1 NCel=       1 NClECP=     1 NCelD=      1
         NCelK=      1 NCelE2=     1 NClLst=     1 CellRange=     0.0.
 One-electron integrals computed using PRISM.
 One-electron integral symmetry used in STVInt
 NBasis=   960 RedAO= T EigKep=  3.95D-05  NBF=   504   456
 NBsUse=   960 1.00D-06 EigRej= -1.00D+00 NBFU=   504   456
 Precomputing XC quadrature grid using
 IXCGrd= 4 IRadAn=           5 IRanWt=          -1 IRanGd=           0 AccXCQ= 0.00D+00.
 Generated NRdTot=       0 NPtTot=           0 NUsed=           0 NTot=          32
 NSgBfM=   987   987   987   987   987 MxSgAt=    72 MxSgA2=    72.
 Leave Link  302 at Wed Sep 27 17:00:26 2023, MaxMem=  3221225472 cpu:              60.8 elap:               1.6
 (Enter /home/center/opt/aarch64/apps/gaussian16/c01/g16/l303.exe)
 DipDrv:  MaxL=1.
 Leave Link  303 at Wed Sep 27 17:00:29 2023, MaxMem=  3221225472 cpu:              13.1 elap:               0.4
 (Enter /home/center/opt/aarch64/apps/gaussian16/c01/g16/l401.exe)
 ExpMin= 1.03D-01 ExpMax= 4.56D+03 ExpMxC= 6.82D+02 IAcc=3 IRadAn=         5 AccDes= 0.00D+00
 Harris functional with IExCor=  402 and IRadAn=       5 diagonalized for initial guess.
 HarFok:  IExCor=  402 AccDes= 0.00D+00 IRadAn=         5 IDoV= 1 UseB2=F ITyADJ=14
 ICtDFT=  3500011 ScaDFX=  1.000000  1.000000  1.000000  1.000000
 FoFCou: FMM=F IPFlag=           0 FMFlag=      100000 FMFlg1=        2000
         NFxFlg=           0 DoJE=T BraDBF=F KetDBF=T FulRan=T
         wScrn=  0.000000 ICntrl=       500 IOpCl=  0 I1Cent=   200000004 NGrid=           0
         NMat0=    1 NMatS0=      1 NMatT0=    0 NMatD0=    1 NMtDS0=    0 NMtDT0=    0
 Petite list used in FoFCou.
 Harris En= -847.065135762608    
 JPrj=0 DoOrth=F DoCkMO=F.
 Initial guess orbital symmetries:
       Occupied  (A") (A') (A') (A") (A") (A') (A") (A') (A') (A")
                 (A") (A') (A') (A') (A") (A') (A") (A') (A") (A')
                 (A') (A") (A') (A") (A') (A") (A') (A') (A") (A')
                 (A") (A") (A') (A') (A") (A") (A') (A") (A') (A')
                 (A') (A") (A") (A") (A') (A') (A") (A') (A') (A")
                 (A') (A") (A") (A') (A') (A") (A') (A") (A') (A")
                 (A") (A') (A') (A") (A') (A") (A') (A") (A') (A')
                 (A") (A") (A')
       Virtual   (A') (A") (A") (A') (A') (A") (A') (A") (A') (A")
                 (A') (A') (A") (A') (A") (A') (A") (A') (A') (A")
                 (A") (A') (A') (A") (A") (A') (A') (A') (A') (A")
                 (A') (A") (A') (A") (A") (A') (A') (A") (A") (A')
                 (A') (A") (A") (A') (A") (A') (A') (A") (A") (A')
                 (A") (A') (A") (A') (A') (A') (A") (A") (A') (A')
                 (A") (A') (A") (A") (A') (A') (A') (A") (A') (A")
                 (A') (A") (A") (A') (A') (A") (A') (A') (A") (A')
                 (A') (A") (A') (A") (A') (A") (A') (A") (A') (A")
                 (A") (A") (A") (A') (A') (A") (A") (A') (A') (A')
                 (A') (A") (A') (A') (A") (A') (A') (A") (A") (A')
                 (A') (A") (A") (A') (A') (A") (A") (A") (A') (A")
                 (A") (A') (A') (A') (A") (A') (A') (A') (A") (A')
                 (A") (A") (A') (A') (A') (A") (A') (A") (A') (A")
                 (A") (A') (A') (A") (A') (A") (A') (A") (A") (A")
                 (A') (A') (A") (A") (A') (A") (A') (A') (A') (A")
                 (A') (A') (A") (A') (A") (A") (A') (A") (A') (A")
                 (A') (A') (A") (A") (A") (A') (A") (A') (A') (A')
                 (A") (A") (A') (A") (A') (A") (A') (A') (A") (A")
                 (A') (A') (A') (A") (A') (A") (A') (A') (A") (A')
                 (A") (A") (A') (A") (A") (A") (A') (A') (A") (A')
                 (A') (A") (A') (A") (A") (A') (A') (A") (A") (A")
                 (A') (A') (A') (A') (A") (A') (A') (A") (A') (A")
                 (A") (A') (A') (A") (A") (A') (A") (A') (A") (A")
                 (A') (A") (A') (A') (A") (A') (A') (A") (A") (A")
                 (A") (A') (A") (A') (A') (A') (A') (A') (A") (A")
                 (A") (A') (A") (A') (A') (A') (A") (A") (A') (A')
                 (A") (A") (A') (A") (A") (A') (A") (A') (A') (A")
                 (A') (A") (A') (A") (A') (A") (A') (A") (A') (A')
                 (A") (A') (A") (A') (A") (A') (A') (A') (A') (A")
                 (A") (A') (A") (A") (A') (A') (A") (A") (A") (A')
                 (A") (A") (A') (A') (A') (A") (A') (A') (A") (A')
                 (A") (A') (A") (A') (A") (A') (A") (A') (A") (A')
                 (A") (A') (A') (A') (A") (A') (A") (A') (A') (A")
                 (A') (A") (A") (A") (A') (A") (A') (A") (A') (A')
                 (A') (A") (A") (A') (A") (A') (A") (A') (A') (A')
                 (A') (A") (A') (A") (A") (A") (A') (A") (A') (A")
                 (A') (A") (A') (A") (A') (A") (A') (A") (A") (A")
                 (A') (A') (A') (A") (A") (A') (A') (A') (A") (A")
                 (A') (A") (A') (A") (A') (A') (A") (A') (A") (A")
                 (A") (A') (A') (A") (A') (A") (A') (A") (A') (A")
                 (A') (A") (A') (A') (A") (A') (A") (A') (A") (A")
                 (A') (A') (A") (A') (A") (A') (A") (A") (A') (A")
                 (A") (A') (A') (A') (A') (A") (A') (A") (A") (A')
                 (A") (A') (A') (A") (A') (A') (A") (A") (A') (A")
                 (A") (A') (A') (A') (A') (A") (A") (A') (A") (A")
                 (A') (A") (A') (A") (A') (A") (A') (A") (A') (A')
                 (A") (A') (A") (A") (A') (A") (A") (A') (A') (A")
                 (A') (A") (A") (A') (A") (A') (A') (A") (A") (A')
                 (A') (A") (A') (A") (A') (A") (A') (A') (A") (A")
                 (A') (A") (A') (A") (A') (A") (A') (A") (A') (A")
                 (A') (A') (A') (A") (A") (A") (A") (A") (A') (A')
                 (A') (A') (A") (A") (A') (A") (A') (A') (A") (A')
                 (A') (A") (A") (A') (A') (A') (A") (A') (A") (A')
                 (A") (A") (A') (A') (A") (A') (A') (A") (A") (A')
                 (A") (A") (A') (A') (A') (A") (A') (A") (A') (A")
                 (A") (A') (A') (A") (A") (A") (A') (A") (A') (A")
                 (A') (A') (A') (A') (A") (A') (A') (A") (A") (A")
                 (A') (A") (A') (A") (A') (A") (A") (A') (A") (A')
                 (A') (A') (A') (A") (A') (A') (A") (A") (A') (A")
                 (A") (A') (A") (A") (A') (A") (A') (A') (A') (A")
                 (A") (A') (A') (A") (A') (A") (A') (A") (A') (A")
                 (A') (A') (A") (A") (A') (A") (A") (A') (A') (A")
                 (A") (A') (A") (A") (A") (A') (A') (A') (A') (A")
                 (A') (A") (A') (A") (A') (A') (A") (A") (A') (A")
                 (A') (A') (A") (A") (A') (A') (A") (A") (A") (A')
                 (A") (A") (A') (A') (A") (A') (A") (A') (A") (A')
                 (A') (A") (A") (A') (A') (A") (A') (A") (A') (A')
                 (A") (A') (A") (A') (A") (A') (A") (A') (A') (A")
                 (A') (A") (A') (A') (A") (A") (A") (A') (A') (A')
[...]
                 (A") (A') (A') (A') (A") (A') (A") (A") (A") (A')
                 (A') (A") (A') (A") (A") (A') (A") (A') (A') (A')
                 (A') (A') (A") (A") (A") (A") (A') (A") (A') (A")
                 (A') (A') (A') (A") (A") (A') (A') (A") (A') (A")
                 (A') (A") (A") (A") (A') (A') (A") (A') (A') (A")
                 (A') (A") (A") (A') (A') (A") (A') (A") (A') (A")
                 (A") (A') (A') (A') (A') (A") (A") (A") (A') (A")
                 (A') (A") (A') (A") (A') (A') (A") (A") (A') (A")
                 (A') (A") (A') (A") (A') (A') (A") (A') (A") (A")
                 (A') (A") (A') (A') (A") (A") (A') (A") (A') (A")
                 (A') (A') (A") (A') (A') (A") (A") (A') (A') (A')
                 (A") (A') (A") (A") (A") (A") (A') (A") (A') (A')
                 (A") (A') (A") (A') (A') (A') (A") (A') (A") (A')
                 (A") (A") (A') (A') (A") (A") (A') (A') (A") (A')
                 (A') (A') (A') (A") (A") (A") (A") (A') (A') (A")
                 (A') (A") (A") (A') (A") (A') (A") (A') (A") (A')
                 (A") (A') (A') (A") (A') (A") (A") (A') (A') (A")
                 (A") (A') (A') (A") (A") (A') (A") (A") (A") (A')
                 (A') (A") (A') (A') (A") (A') (A') (A") (A') (A")
                 (A") (A') (A") (A') (A') (A") (A") (A") (A') (A')
                 (A") (A') (A') (A") (A") (A") (A') (A") (A') (A')
                 (A") (A') (A") (A') (A") (A') (A') (A') (A") (A')
                 (A") (A") (A') (A') (A") (A") (A') (A") (A') (A")
                 (A') (A') (A") (A") (A') (A') (A") (A') (A') (A')
                 (A") (A") (A') (A") (A') (A") (A') (A") (A') (A')
                 (A') (A") (A") (A") (A') (A") (A') (A') (A') (A")
                 (A") (A') (A") (A') (A') (A") (A') (A") (A") (A')
                 (A') (A") (A') (A") (A") (A') (A') (A") (A') (A")
                 (A') (A") (A') (A") (A') (A") (A") (A') (A') (A")
                 (A') (A") (A') (A') (A") (A") (A') (A") (A') (A')
                 (A") (A') (A") (A') (A') (A") (A') (A") (A') (A")
                 (A") (A') (A") (A') (A") (A') (A") (A') (A') (A")
                 (A") (A') (A") (A') (A') (A") (A") (A') (A') (A")
                 (A') (A") (A') (A") (A') (A') (A")
 The electronic state is 1-A'.
 Alpha  occ. eigenvalues --  -10.18931 -10.18930 -10.18896 -10.18895 -10.18848
 Alpha  occ. eigenvalues --  -10.18848 -10.18813 -10.18813 -10.17956 -10.17955
 Alpha  occ. eigenvalues --  -10.17920 -10.17920 -10.17919 -10.17919 -10.17875
 Alpha  occ. eigenvalues --  -10.17875 -10.17863 -10.17863 -10.17808 -10.17808
 Alpha  occ. eigenvalues --  -10.17781 -10.17781  -0.89340  -0.87865  -0.85549
 Alpha  occ. eigenvalues --   -0.82415  -0.79820  -0.78521  -0.78314  -0.75991
 Alpha  occ. eigenvalues --   -0.74255  -0.72901  -0.69196  -0.67344  -0.62728
 Alpha  occ. eigenvalues --   -0.62370  -0.61108  -0.59964  -0.59301  -0.57689
 Alpha  occ. eigenvalues --   -0.52709  -0.52573  -0.52293  -0.49654  -0.48513
 Alpha  occ. eigenvalues --   -0.47160  -0.46110  -0.45590  -0.45476  -0.43928
 Alpha  occ. eigenvalues --   -0.43182  -0.42578  -0.41808  -0.41572  -0.41386
 Alpha  occ. eigenvalues --   -0.40692  -0.40405  -0.39579  -0.38193  -0.36732
 Alpha  occ. eigenvalues --   -0.36341  -0.35550  -0.34094  -0.33809  -0.33058
 Alpha  occ. eigenvalues --   -0.32930  -0.31612  -0.29665  -0.28406  -0.26623
 Alpha  occ. eigenvalues --   -0.24364  -0.22582  -0.17855
 Alpha virt. eigenvalues --   -0.09755  -0.04464  -0.02747  -0.00147   0.02073
 Alpha virt. eigenvalues --    0.02370   0.03189   0.04746   0.04859   0.04871
 Alpha virt. eigenvalues --    0.06161   0.06575   0.07968   0.08162   0.08303
 Alpha virt. eigenvalues --    0.09607   0.10049   0.11524   0.11533   0.13796
 Alpha virt. eigenvalues --    0.14111   0.14670   0.18092   0.18194   0.18832
 Alpha virt. eigenvalues --    0.19391   0.22815   0.23002   0.24379   0.24942
 Alpha virt. eigenvalues --    0.25581   0.27528   0.27575   0.28012   0.28228
 Alpha virt. eigenvalues --    0.28947   0.29389   0.30158   0.30759   0.31175
 Alpha virt. eigenvalues --    0.32897   0.34528   0.36420   0.36484   0.37134
 Alpha virt. eigenvalues --    0.37503   0.37629   0.37651   0.38116   0.38643
 Alpha virt. eigenvalues --    0.39094   0.39439   0.39739   0.40236   0.40435
 Alpha virt. eigenvalues --    0.41918   0.41926   0.41940   0.42289   0.42318
 Alpha virt. eigenvalues --    0.42643   0.43748   0.44233   0.44835   0.45295
 Alpha virt. eigenvalues --    0.45683   0.45924   0.45953   0.46379   0.47165
 Alpha virt. eigenvalues --    0.47805   0.47809   0.47978   0.48073   0.48231
 Alpha virt. eigenvalues --    0.48568   0.49414   0.49572   0.51377   0.51846
 Alpha virt. eigenvalues --    0.52370   0.53118   0.53671   0.55998   0.57923
 Alpha virt. eigenvalues --    0.57955   0.59048   0.59201   0.60433   0.60585
 Alpha virt. eigenvalues --    0.60693   0.61101   0.61690   0.62105   0.62173
 Alpha virt. eigenvalues --    0.63432   0.63481   0.64458   0.64535   0.65533
 Alpha virt. eigenvalues --    0.66693   0.66910   0.67680   0.67724   0.70658
 Alpha virt. eigenvalues --    0.71305   0.71405   0.71494   0.72803   0.73989
 Alpha virt. eigenvalues --    0.75405   0.75894   0.76289   0.77801   0.77809
 Alpha virt. eigenvalues --    0.78943   0.79160   0.79723   0.81162   0.81509
 Alpha virt. eigenvalues --    0.82881   0.83001   0.84383   0.84585   0.84713
 Alpha virt. eigenvalues --    0.88087   0.89711   0.89765   0.91536   0.92083
 Alpha virt. eigenvalues --    0.92578   0.93749   0.95806   0.96107   0.96442
 Alpha virt. eigenvalues --    0.96590   0.96905   0.98547   1.00356   1.01118
 Alpha virt. eigenvalues --    1.02686   1.03027   1.03354   1.04405   1.05244
 Alpha virt. eigenvalues --    1.05439   1.05525   1.05950   1.07395   1.07547
 Alpha virt. eigenvalues --    1.07686   1.08438   1.10005   1.10036   1.12070
 Alpha virt. eigenvalues --    1.13223   1.13544   1.13650   1.14526   1.15341
 Alpha virt. eigenvalues --    1.17432   1.18332   1.19657   1.20432   1.23014
 Alpha virt. eigenvalues --    1.23618   1.27884   1.28234   1.30579   1.32076
 Alpha virt. eigenvalues --    1.32743   1.34942   1.37641   1.39236   1.39896
 Alpha virt. eigenvalues --    1.39942   1.40725   1.42751   1.43476   1.43554
 Alpha virt. eigenvalues --    1.45057   1.46086   1.47119   1.47538   1.48841
 Alpha virt. eigenvalues --    1.49280   1.49417   1.50258   1.50674   1.52268
 Alpha virt. eigenvalues --    1.52650   1.53402   1.54331   1.54372   1.54781
 Alpha virt. eigenvalues --    1.54807   1.57107   1.57715   1.58569   1.59882
 Alpha virt. eigenvalues --    1.60106   1.62692   1.63242   1.64856   1.66641
 Alpha virt. eigenvalues --    1.69292   1.69605   1.69709   1.70649   1.71804
 Alpha virt. eigenvalues --    1.72459   1.72619   1.73075   1.73096   1.73680
 Alpha virt. eigenvalues --    1.77494   1.78519   1.79157   1.79419   1.80511
 Alpha virt. eigenvalues --    1.81616   1.81887   1.82058   1.83581   1.84039
 Alpha virt. eigenvalues --    1.85487   1.87392   1.87456   1.87577   1.87728
 Alpha virt. eigenvalues --    1.88131   1.88613   1.90743   1.91387   1.92190
 Alpha virt. eigenvalues --    1.92193   1.92572   1.92670   1.93517   1.93938
 Alpha virt. eigenvalues --    1.94544   1.95483   1.97262   1.99429   2.00088
 Alpha virt. eigenvalues --    2.00602   2.01362   2.03019   2.05757   2.08293
 Alpha virt. eigenvalues --    2.09111   2.09256   2.09792   2.12192   2.14098
 Alpha virt. eigenvalues --    2.15528   2.15584   2.17200   2.19751   2.20833
 Alpha virt. eigenvalues --    2.21576   2.22525   2.23381   2.24503   2.26441
 Alpha virt. eigenvalues --    2.26972   2.27242   2.27719   2.28046   2.29391
 Alpha virt. eigenvalues --    2.33301   2.35725   2.39155   2.39384   2.40817
 Alpha virt. eigenvalues --    2.42649   2.43076   2.45776   2.45994   2.46870
 Alpha virt. eigenvalues --    2.51623   2.51954   2.53354   2.53485   2.55138
 Alpha virt. eigenvalues --    2.56159   2.58701   2.58838   2.59764   2.59776
 Alpha virt. eigenvalues --    2.60682   2.61147   2.61719   2.62222   2.63349
 Alpha virt. eigenvalues --    2.63999   2.64478   2.66054   2.66794   2.67121
 Alpha virt. eigenvalues --    2.67374   2.68356   2.68872   2.68876   2.69372
 Alpha virt. eigenvalues --    2.69557   2.69907   2.70083   2.70281   2.73482
 Alpha virt. eigenvalues --    2.74771   2.74836   2.76066   2.77101   2.77577
 Alpha virt. eigenvalues --    2.78232   2.78455   2.78850   2.80822   2.82359
 Alpha virt. eigenvalues --    2.85535   2.85993   2.86737   2.87294   2.90966
 Alpha virt. eigenvalues --    2.91783   2.92195   2.93676   2.95232   2.95887
 Alpha virt. eigenvalues --    2.99270   2.99858   3.03165   3.05604   3.06852
 Alpha virt. eigenvalues --    3.07371   3.15988   3.16029   3.16647   3.19843
 Alpha virt. eigenvalues --    3.20017   3.23601   3.29134   3.29680   3.31610
 Alpha virt. eigenvalues --    3.35095   3.35458   3.35677   3.35858   3.38023
 Alpha virt. eigenvalues --    3.39887   3.41413   3.44960   3.45362   3.47993
 Alpha virt. eigenvalues --    3.48278   3.50401   3.53073   3.57439   3.58649
 Alpha virt. eigenvalues --    3.61466   3.62620   3.63208   3.63698   3.65910
 Alpha virt. eigenvalues --    3.67534   3.67678   4.00384   4.00442   4.01859
 Alpha virt. eigenvalues --    4.02182   4.16133   4.16678   4.17360   4.21240
 Alpha virt. eigenvalues --    4.22396   4.22517   4.25488   4.38492   4.62290
 Alpha virt. eigenvalues --    4.79179   4.79740   4.80562   4.82562   4.83014
 Alpha virt. eigenvalues --   23.39176  23.54541  23.69085  23.77378  23.80419
 Alpha virt. eigenvalues --   23.81537  23.86099  23.89067  23.89154  23.92210
 Alpha virt. eigenvalues --   23.97563  23.98365  24.09049  24.09932  24.10529
 Alpha virt. eigenvalues --   24.12220  24.13779  24.14375  24.15775  24.15810
 Alpha virt. eigenvalues --   24.20452  24.20497
          Condensed to atoms (all electrons):
 Mulliken charges:
               1
     1  C    0.000000
     2  C    0.000000
     3  C    0.000000
     4  C    0.000000
     5  C    0.000000
     6  C    0.000000
     7  C    0.000000
     8  C    0.000000
     9  C    0.000000
    10  C    0.000000
    11  H    0.000000
    12  H    0.000000
    13  H    0.000000
    14  H    0.000000
    15  H    0.000000
    16  H    0.000000
    17  C    0.000000
    18  C    0.000000
    19  C    0.000000
    20  C    0.000000
    21  H    0.000000
    22  H    0.000000
    23  C    0.000000
    24  C    0.000000
    25  C    0.000000
    26  C    0.000000
    27  H    0.000000
    28  H    0.000000
    29  C    0.000000
    30  C    0.000000
    31  C    0.000000
    32  C    0.000000
    33  H    0.000000
    34  H    0.000000
    35  H    0.000000
    36  H    0.000000
    37  C   -0.059168
    38  C   -0.059168
    39  C   -0.055977
    40  C   -0.055977
    41  C   -0.092198
    42  C   -0.092198
    43  C   -0.016525
    44  C   -0.054498
    45  C   -0.016525
    46  C   -0.054498
    47  H    0.082122
    48  H    0.074853
    49  H    0.074853
    50  H    0.082122
    51  H    0.094847
    52  H    0.094847
    53  C   -0.020341
    54  C   -0.054498
    55  C   -0.020341
    56  C   -0.054498
    57  H    0.073428
    58  H    0.073428
    59  C   -0.016525
    60  C   -0.059168
    61  C   -0.016525
    62  C   -0.059168
    63  H    0.074853
    64  H    0.074853
    65  C   -0.055977
    66  C   -0.092198
    67  C   -0.055977
    68  C   -0.092198
    69  H    0.082122
    70  H    0.094847
    71  H    0.094847
    72  H    0.082122
 Sum of Mulliken charges =   0.00000
 Mulliken charges with hydrogens summed into heavy atoms:
               1
     1  C    0.000000
     2  C    0.000000
     3  C    0.000000
     4  C    0.000000
     5  C    0.000000
     6  C    0.000000
     7  C    0.000000
     8  C    0.000000
     9  C    0.000000
    10  C    0.000000
    17  C    0.000000
    18  C    0.000000
    19  C    0.000000
    20  C    0.000000
    23  C    0.000000
    24  C    0.000000
    25  C    0.000000
    26  C    0.000000
    29  C    0.000000
    30  C    0.000000
    31  C    0.000000
    32  C    0.000000
    37  C   -0.059168
    38  C   -0.059168
    39  C    0.026144
    40  C    0.026144
    41  C    0.002649
    42  C    0.002649
    43  C    0.058328
    44  C   -0.054498
    45  C    0.058328
    46  C   -0.054498
    53  C    0.053087
    54  C   -0.054498
    55  C    0.053087
    56  C   -0.054498
    59  C    0.058328
    60  C   -0.059168
    61  C    0.058328
    62  C   -0.059168
    65  C    0.026144
    66  C    0.002649
    67  C    0.026144
    68  C    0.002649
         Mulliken charges condensed to fragments:
      1      0.000000
      2      0.000000
 Electronic spatial extent (au):  <R**2>=          25069.7931
 Charge=              0.0000 electrons
 Dipole moment (field-independent basis, Debye):
    X=              0.0000    Y=              0.0000    Z=              0.0000  Tot=              0.0000
 Quadrupole moment (field-independent basis, Debye-Ang):
   XX=           -136.3921   YY=           -110.7480   ZZ=           -109.0115
   XY=              0.0000   XZ=              0.0000   YZ=              0.0000
 Traceless Quadrupole moment (field-independent basis, Debye-Ang):
   XX=            -17.6749   YY=              7.9692   ZZ=              9.7057
   XY=              0.0000   XZ=              0.0000   YZ=              0.0000
 Octapole moment (field-independent basis, Debye-Ang**2):
  XXX=           1591.3219  YYY=           1292.1263  ZZZ=              0.0000  XYY=            430.7088
  XXY=            530.4406  XXZ=              0.0000  XZZ=            423.9552  YZZ=            423.9551
  YYZ=              0.0000  XYZ=              0.0000
 Hexadecapole moment (field-independent basis, Debye-Ang**3):
 XXXX=         -12531.9834 YYYY=         -11167.1007 ZZZZ=         -10461.4324 XXXY=          -6188.7897
 XXXZ=              0.0000 YYYX=          -5025.1920 YYYZ=              0.0000 ZZZX=              0.0000
 ZZZY=              0.0000 XXYY=          -3994.4093 XXZZ=          -3856.7306 YYZZ=          -3618.0129
 XXYZ=              0.0000 YYXZ=              0.0000 ZZXY=          -1648.7986
 N-N= 1.494327111855D+03 E-N=-4.953709175251D+03  KE= 8.433374904953D+02
 Symmetry A'   KE= 4.567052305398D+02
 Symmetry A"   KE= 3.866322599556D+02
 No NMR shielding tensors so no spin-rotation constants.
 Leave Link  601 at Wed Sep 27 17:17:59 2023, MaxMem=  3221225472 cpu:              18.6 elap:               0.5
 (Enter /home/center/opt/aarch64/apps/gaussian16/c01/g16/l122.exe)
 CPIOFr:  IOpCl= 0 IRwI=-1 IRwCP=  731 ICalc=  4 LCPTot=     1419224 Len1MO=     3708034 IndFrg=    19959394
 Restoring MOs from calculation   1 to rwf.
 CPIOFr:  IOpCl= 0 IRwI=-2 IRwCP=  731 ICalc=  0 LCPTot=     1419224 Len1MO=     3708034 IndFrg=     5127258
 Counterpoise corrected energy =   -1694.040015314977
                   BSSE energy =      -0.000000365819
              sum of fragments =   -1694.039683044260
           complexation energy =      -0.21 kcal/mole (raw)
           complexation energy =      -0.21 kcal/mole (corrected)
 Leave Link  122 at Wed Sep 27 17:18:02 2023, MaxMem=  3221225472 cpu:               8.3 elap:               0.3
 (Enter /home/center/opt/aarch64/apps/gaussian16/c01/g16/l9999.exe)

 Test job not archived.
 1\1\GINC-FX0447\SP\RB3LYP\6-311G(d,p)\C44H28\Z40145W\27-Sep-2023\0\\#P
  TEST b3lyp/6-311G** EmpiricalDispersion=GD3 counterpoise=2\\pentacene
 _A1=0_A2=0_A3=45_p2\\0,1\C,0,-0.5039478476,0.5239478476,-3.6612755801\
 C,0,0.5239480325,-0.5039480325,-3.6612755629\C,0,-0.9861248463,1.00612
 48463,-4.9235927708\C,0,1.0061250889,-0.9861250889,-4.9235926697\C,0,-
 0.4963213507,0.5163213507,-6.096356521\C,0,0.5163216812,-0.4963216812,
 -6.0963564796\C,0,-0.9844684311,1.0044684311,-2.4533174875\C,0,-0.5044
 88426,0.524488426,-1.2140288145\C,0,1.0044685359,-0.9844685359,-2.4533
 173917\C,0,0.5244885437,-0.5044885437,-1.2140288362\H,0,-1.7533559667,
 1.7733559667,-4.9232600459\H,0,-1.7521866813,1.7721866813,-2.453928581
 5\H,0,1.7721859268,-1.7521859268,-2.4539284818\H,0,1.7733558421,-1.753
 3558421,-4.9232597785\H,0,0.8905568758,-0.8705568758,-7.0425276922\H,0
 ,-0.8705565046,0.8905565046,-7.042527775\C,0,-0.9848184961,1.004818496
 1,0.0099998782\C,0,-0.5044883957,0.5244883957,1.2340295553\C,0,1.00481
 85643,-0.9848185643,0.0099998696\C,0,0.5244885146,-0.5044885146,1.2340
 295261\H,0,-1.7524699697,1.7724699697,0.0099999205\H,0,1.772468921,-1.
 752468921,0.0099999641\C,0,-0.9844683048,1.0044683048,2.4733171385\C,0
 ,-0.5039477114,0.5239477114,3.681276331\C,0,1.0044684211,-0.9844684211
 ,2.4733170835\C,0,0.5239479079,-0.5039479079,3.6812763217\H,0,-1.75218
 65527,1.7721865527,2.4739285326\H,0,1.7721858092,-1.7521858092,2.47392
 83796\C,0,-0.9861245177,1.0061245177,4.9435920588\C,0,-0.4963209372,0.
 5163209372,6.116356633\C,0,1.0061247659,-0.9861247659,4.9435919377\C,0
 ,0.5163212637,-0.4963212637,6.1163566075\H,0,-1.7533556504,1.773355650
 4,4.9432601504\H,0,-0.8705567426,0.8905567426,7.0625274368\H,0,0.89055
 70967,-0.8705570967,7.0625272142\H,0,1.7733555414,-1.7533555414,4.9432
 599297\C,0,10.4960521524,0.5239478476,-3.6612755801\C,0,11.5239480325,
 -0.5039480325,-3.6612755629\C,0,10.0138751537,1.0061248463,-4.92359277
 08\C,0,12.0061250889,-0.9861250889,-4.9235926697\C,0,10.5036786493,0.5
 163213507,-6.096356521\C,0,11.5163216812,-0.4963216812,-6.0963564796\C
 ,0,10.0155315689,1.0044684311,-2.4533174875\C,0,10.495511574,0.5244884
 26,-1.2140288145\C,0,12.0044685359,-0.9844685359,-2.4533173917\C,0,11.
 5244885437,-0.5044885437,-1.2140288362\H,0,9.2466440333,1.7733559667,-
 4.9232600459\H,0,9.2478133187,1.7721866813,-2.4539285815\H,0,12.772185
 9268,-1.7521859268,-2.4539284818\H,0,12.7733558421,-1.7533558421,-4.92
 32597785\H,0,11.8905568758,-0.8705568758,-7.0425276922\H,0,10.12944349
 54,0.8905565046,-7.042527775\C,0,10.0151815039,1.0048184961,0.00999987
 82\C,0,10.4955116043,0.5244883957,1.2340295553\C,0,12.0048185643,-0.98
 48185643,0.0099998696\C,0,11.5244885146,-0.5044885146,1.2340295261\H,0
 ,9.2475300303,1.7724699697,0.0099999205\H,0,12.772468921,-1.752468921,
 0.0099999641\C,0,10.0155316952,1.0044683048,2.4733171385\C,0,10.496052
 2886,0.5239477114,3.681276331\C,0,12.0044684211,-0.9844684211,2.473317
 0835\C,0,11.5239479079,-0.5039479079,3.6812763217\H,0,9.2478134473,1.7
 721865527,2.4739285326\H,0,12.7721858092,-1.7521858092,2.4739283796\C,
 0,10.0138754823,1.0061245177,4.9435920588\C,0,10.5036790628,0.51632093
 72,6.116356633\C,0,12.0061247659,-0.9861247659,4.9435919377\C,0,11.516
 3212637,-0.4963212637,6.1163566075\H,0,9.2466443496,1.7733556504,4.943
 2601504\H,0,10.1294432574,0.8905567426,7.0625274368\H,0,11.8905570967,
 -0.8705570967,7.0625272142\H,0,12.7733555414,-1.7533555414,4.943259929
 7\\Version=Fujitsu-Arm-G16RevC.01\State=1-A'\HF=-847.0198415\RMSD=3.18
 2e-09\Dipole=0.0000281,-0.0000281,0.\Quadrupole=-7.5511849,-6.9037673,
 14.4549522,-18.6849392,0.,0.\PG=CS [SG(C4H4),X(C40H24)]\\@


 THE ENLIGHTENED ONE, BECAUSE HE SAW MANKIND DROWNING  
 IN THE GREAT SEA OF BIRTH, DEATH, AND SORROW, LONGED TO SAVE 
 THEM, FOR THIS HE WAS MOVED TO PITY.                         
 BECAUSE HE SAW MEN OF THE WORLD STRAYING IN FALSE PATHS, AND 
 NONE TO GUIDE THEM, FOR THIS HE WAS MOVED TO PITY.           
                     ..................                       
 BECAUSE HE SAW THE MEN OF THE WORLD PLOUGHING THEIR FIELDS,  
 SOWING THE SEED, TRAFFICKING, HUCKSTERING, BUYING, SELLING,  
 AND AT THE END WINNOWING NOTHING BUT BITTERNESS,             
 FOR THIS HE WAS MOVED TO PITY......                   
                   BUDAH'S PITY - UPSAKA SILA SUTRA           
 Job cpu time:       0 days  2 hours 30 minutes 45.8 seconds.
 Elapsed time:       0 days  0 hours  4 minutes  0.4 seconds.
 File lengths (MBytes):  RWF=    718 Int=      0 D2E=      0 Chk=    208 Scr=      1
 Normal termination of Gaussian 16 at Wed Sep 27 17:18:07 2023.
