 Entering Gaussian System, Link 0=g16
 Initial command:
 /home/center/opt/aarch64/apps/gaussian16/c01/g16/l1.exe "/data/tmp/Gtmp/1006945/Gau-49.inp" -scrdir="/data/tmp/Gtmp/1006945/"
 Entering Link 1 = /home/center/opt/aarch64/apps/gaussian16/c01/g16/l1.exe PID=        50.
  
 Copyright (c) 1988-2019, Gaussian, Inc.  All Rights Reserved.
  
 This is part of the Gaussian(R) 16 program.  It is based on
 the Gaussian(R) 09 system (copyright 2009, Gaussian, Inc.),
 the Gaussian(R) 03 system (copyright 2003, Gaussian, Inc.),
 the Gaussian(R) 98 system (copyright 1998, Gaussian, Inc.),
 the Gaussian(R) 94 system (copyright 1995, Gaussian, Inc.),
 the Gaussian 92(TM) system (copyright 1992, Gaussian, Inc.),
 the Gaussian 90(TM) system (copyright 1990, Gaussian, Inc.),
 the Gaussian 88(TM) system (copyright 1988, Gaussian, Inc.),
 the Gaussian 86(TM) system (copyright 1986, Carnegie Mellon
 University), and the Gaussian 82(TM) system (copyright 1983,
 Carnegie Mellon University). Gaussian is a federally registered
 trademark of Gaussian, Inc.
  
 This software contains proprietary and confidential information,
 including trade secrets, belonging to Gaussian, Inc.
  
 This software is provided under written license and may be
 used, copied, transmitted, or stored only in accord with that
 written license.
  
 The following legend is applicable only to US Government
 contracts under FAR:
  
                    RESTRICTED RIGHTS LEGEND
  
 Use, reproduction and disclosure by the US Government is
 subject to restrictions as set forth in subparagraphs (a)
 and (c) of the Commercial Computer Software - Restricted
 Rights clause in FAR 52.227-19.
  
 Gaussian, Inc.
 340 Quinnipiac St., Bldg. 40, Wallingford CT 06492
  
  
 ---------------------------------------------------------------
 Warning -- This program may not be used in any manner that
 competes with the business of Gaussian, Inc. or will provide
 assistance to any competitor of Gaussian, Inc.  The licensee
 of this program is prohibited from giving any competitor of
 Gaussian, Inc. access to this program.  By using this program,
 the user acknowledges that Gaussian, Inc. is engaged in the
 business of creating and licensing software in the field of
 computational chemistry and represents and warrants to the
 licensee that it is not a competitor of Gaussian, Inc. and that
 it will not use this program in any manner prohibited above.
 ---------------------------------------------------------------
  

 Cite this work as:
 Gaussian 16, Revision C.01,
 M. J. Frisch, G. W. Trucks, H. B. Schlegel, G. E. Scuseria, 
 M. A. Robb, J. R. Cheeseman, G. Scalmani, V. Barone, 
 G. A. Petersson, H. Nakatsuji, X. Li, M. Caricato, A. V. Marenich, 
 J. Bloino, B. G. Janesko, R. Gomperts, B. Mennucci, H. P. Hratchian, 
 J. V. Ortiz, A. F. Izmaylov, J. L. Sonnenberg, D. Williams-Young, 
 F. Ding, F. Lipparini, F. Egidi, J. Goings, B. Peng, A. Petrone, 
 T. Henderson, D. Ranasinghe, V. G. Zakrzewski, J. Gao, N. Rega, 
 G. Zheng, W. Liang, M. Hada, M. Ehara, K. Toyota, R. Fukuda, 
 J. Hasegawa, M. Ishida, T. Nakajima, Y. Honda, O. Kitao, H. Nakai, 
 T. Vreven, K. Throssell, J. A. Montgomery, Jr., J. E. Peralta, 
 F. Ogliaro, M. J. Bearpark, J. J. Heyd, E. N. Brothers, K. N. Kudin, 
 V. N. Staroverov, T. A. Keith, R. Kobayashi, J. Normand, 
 K. Raghavachari, A. P. Rendell, J. C. Burant, S. S. Iyengar, 
 J. Tomasi, M. Cossi, J. M. Millam, M. Klene, C. Adamo, R. Cammi, 
 J. W. Ochterski, R. L. Martin, K. Morokuma, O. Farkas, 
 J. B. Foresman, and D. J. Fox, Gaussian, Inc., Wallingford CT, 2019.
 
 ************************************************
 Gaussian 16:  Fujitsu-Arm-G16RevC.01  3-Jul-2019
                   27-Sep-2023 
 ************************************************
 %mem=24GB
 %nproc=42
 Will use up to   42 processors via shared memory.
 -------------------------------------------------------------
 #P TEST b3lyp/6-311G** EmpiricalDispersion=GD3 counterpoise=2
 -------------------------------------------------------------
 1/38=1,62=2,172=1/1;
 2/12=2,17=6,18=5,40=1/2;
 1/38=1,53=2,62=2,63=1/22;
 3/5=4,6=6,7=101,11=2,25=1,30=1,74=-5,124=31/1,2,3;
 4//1;
 5/5=2,38=5/2;
 6/7=2,8=2,9=2,10=2,28=1/1;
 1/53=2,62=2,63=1/22;
 3/5=7,6=11,7=101,11=2,25=1,30=1,74=-5,82=7,124=31/1,2,3;
 4//1;
 5/5=2,38=5/2;
 6/7=2,8=2,9=2,10=2,28=1/1;
 1/53=2,62=2,63=1/22(-4);
 99/5=1,9=1/99;
 Leave Link    1 at Wed Sep 27 16:37:40 2023, MaxMem=  3221225472 cpu:               6.8 elap:               0.2
 (Enter /home/center/opt/aarch64/apps/gaussian16/c01/g16/l101.exe)
 ----------------------------
 pentacene_A1=0_A2=0_A3=45_t1
 ----------------------------
 Symbolic Z-matrix:
 Charge =  0 Multiplicity = 1 in supermolecule
 Charge =  0 Multiplicity = 1 in fragment      1.
 Charge =  0 Multiplicity = 1 in fragment      2.
 C(Fragment=1)        -0.50395   0.52395  -3.66128 
 C(Fragment=1)         0.52395  -0.50395  -3.66128 
 C(Fragment=1)        -0.98612   1.00612  -4.92359 
 C(Fragment=1)         1.00613  -0.98613  -4.92359 
 C(Fragment=1)        -0.49632   0.51632  -6.09636 
 C(Fragment=1)         0.51632  -0.49632  -6.09636 
 C(Fragment=1)        -0.98447   1.00447  -2.45332 
 C(Fragment=1)        -0.50449   0.52449  -1.21403 
 C(Fragment=1)         1.00447  -0.98447  -2.45332 
 C(Fragment=1)         0.52449  -0.50449  -1.21403 
 H(Fragment=1)        -1.75336   1.77336  -4.92326 
 H(Fragment=1)        -1.75219   1.77219  -2.45393 
 H(Fragment=1)         1.77219  -1.75219  -2.45393 
 H(Fragment=1)         1.77336  -1.75336  -4.92326 
 H(Fragment=1)         0.89056  -0.87056  -7.04253 
 H(Fragment=1)        -0.87056   0.89056  -7.04253 
 C(Fragment=1)        -0.98482   1.00482   0.01 
 C(Fragment=1)        -0.50449   0.52449   1.23403 
 C(Fragment=1)         1.00482  -0.98482   0.01 
 C(Fragment=1)         0.52449  -0.50449   1.23403 
 H(Fragment=1)        -1.75247   1.77247   0.01 
 H(Fragment=1)         1.77247  -1.75247   0.01 
 C(Fragment=1)        -0.98447   1.00447   2.47332 
 C(Fragment=1)        -0.50395   0.52395   3.68128 
 C(Fragment=1)         1.00447  -0.98447   2.47332 
 C(Fragment=1)         0.52395  -0.50395   3.68128 
 H(Fragment=1)        -1.75219   1.77219   2.47393 
 H(Fragment=1)         1.77219  -1.75219   2.47393 
 C(Fragment=1)        -0.98612   1.00612   4.94359 
 C(Fragment=1)        -0.49632   0.51632   6.11636 
 C(Fragment=1)         1.00612  -0.98612   4.94359 
 C(Fragment=1)         0.51632  -0.49632   6.11636 
 H(Fragment=1)        -1.75336   1.77336   4.94326 
 H(Fragment=1)        -0.87056   0.89056   7.06253 
 H(Fragment=1)         0.89056  -0.87056   7.06253 
 H(Fragment=1)         1.77336  -1.75336   4.94326 
 C(Fragment=2)         3.52395   5.27395  -3.66128 
 C(Fragment=2)         2.49605   4.24605  -3.66128 
 C(Fragment=2)         4.00612   5.75612  -4.92359 
 C(Fragment=2)         2.01387   3.76387  -4.92359 
 C(Fragment=2)         3.51632   5.26632  -6.09636 
 C(Fragment=2)         2.50368   4.25368  -6.09636 
 C(Fragment=2)         4.00447   5.75447  -2.45332 
 C(Fragment=2)         3.52449   5.27449  -1.21403 
 C(Fragment=2)         2.01553   3.76553  -2.45332 
 C(Fragment=2)         2.49551   4.24551  -1.21403 
 H(Fragment=2)         4.77336   6.52336  -4.92326 
 H(Fragment=2)         4.77219   6.52219  -2.45393 
 H(Fragment=2)         1.24781   2.99781  -2.45393 
 H(Fragment=2)         1.24664   2.99664  -4.92326 
 H(Fragment=2)         2.12944   3.87944  -7.04253 
 H(Fragment=2)         3.89056   5.64056  -7.04253 
 C(Fragment=2)         4.00482   5.75482   0.01 
 C(Fragment=2)         3.52449   5.27449   1.23403 
 C(Fragment=2)         2.01518   3.76518   0.01 
 C(Fragment=2)         2.49551   4.24551   1.23403 
 H(Fragment=2)         4.77247   6.52247   0.01 
 H(Fragment=2)         1.24753   2.99753   0.01 
 C(Fragment=2)         4.00447   5.75447   2.47332 
 C(Fragment=2)         3.52395   5.27395   3.68128 
 C(Fragment=2)         2.01553   3.76553   2.47332 
 C(Fragment=2)         2.49605   4.24605   3.68128 
 H(Fragment=2)         4.77219   6.52219   2.47393 
 H(Fragment=2)         1.24781   2.99781   2.47393 
 C(Fragment=2)         4.00612   5.75612   4.94359 
 C(Fragment=2)         3.51632   5.26632   6.11636 
 C(Fragment=2)         2.01388   3.76388   4.94359 
 C(Fragment=2)         2.50368   4.25368   6.11636 
 H(Fragment=2)         4.77336   6.52336   4.94326 
 H(Fragment=2)         3.89056   5.64056   7.06253 
 H(Fragment=2)         2.12944   3.87944   7.06253 
 H(Fragment=2)         1.24664   2.99664   4.94326 
 
 ITRead=  0  0  0  0  0  0  0  0  0  0  0  0  0  0  0  0  0  0  0  0
 ITRead=  0  0  0  0  0  0  0  0  0  0  0  0  0  0  0  0  0  0  0  0
 ITRead=  0  0  0  0  0  0  0  0  0  0  0  0  0  0  0  0  0  0  0  0
 ITRead=  0  0  0  0  0  0  0  0  0  0  0  0
 MicOpt= -1 -1 -1 -1 -1 -1 -1 -1 -1 -1 -1 -1 -1 -1 -1 -1 -1 -1 -1 -1
 MicOpt= -1 -1 -1 -1 -1 -1 -1 -1 -1 -1 -1 -1 -1 -1 -1 -1 -1 -1 -1 -1
 MicOpt= -1 -1 -1 -1 -1 -1 -1 -1 -1 -1 -1 -1 -1 -1 -1 -1 -1 -1 -1 -1
 MicOpt= -1 -1 -1 -1 -1 -1 -1 -1 -1 -1 -1 -1
 NAtoms=     72 NQM=       72 NQMF=       0 NMMI=      0 NMMIF=      0
                NMic=       0 NMicF=      0.
                    Isotopes and Nuclear Properties:
 (Nuclear quadrupole moments (NQMom) in fm**2, nuclear magnetic moments (NMagM)
  in nuclear magnetons)

  Atom         1           2           3           4           5           6           7           8           9          10
 IAtWgt=          12          12          12          12          12          12          12          12          12          12
 AtmWgt=  12.0000000  12.0000000  12.0000000  12.0000000  12.0000000  12.0000000  12.0000000  12.0000000  12.0000000  12.0000000
 NucSpn=           0           0           0           0           0           0           0           0           0           0
 AtZEff=   0.0000000   0.0000000   0.0000000   0.0000000   0.0000000   0.0000000   0.0000000   0.0000000   0.0000000   0.0000000
 NQMom=    0.0000000   0.0000000   0.0000000   0.0000000   0.0000000   0.0000000   0.0000000   0.0000000   0.0000000   0.0000000
 NMagM=    0.0000000   0.0000000   0.0000000   0.0000000   0.0000000   0.0000000   0.0000000   0.0000000   0.0000000   0.0000000
 AtZNuc=   6.0000000   6.0000000   6.0000000   6.0000000   6.0000000   6.0000000   6.0000000   6.0000000   6.0000000   6.0000000

  Atom        11          12          13          14          15          16          17          18          19          20
 IAtWgt=           1           1           1           1           1           1          12          12          12          12
 AtmWgt=   1.0078250   1.0078250   1.0078250   1.0078250   1.0078250   1.0078250  12.0000000  12.0000000  12.0000000  12.0000000
 NucSpn=           1           1           1           1           1           1           0           0           0           0
 AtZEff=   0.0000000   0.0000000   0.0000000   0.0000000   0.0000000   0.0000000   0.0000000   0.0000000   0.0000000   0.0000000
 NQMom=    0.0000000   0.0000000   0.0000000   0.0000000   0.0000000   0.0000000   0.0000000   0.0000000   0.0000000   0.0000000
 NMagM=    2.7928460   2.7928460   2.7928460   2.7928460   2.7928460   2.7928460   0.0000000   0.0000000   0.0000000   0.0000000
 AtZNuc=   1.0000000   1.0000000   1.0000000   1.0000000   1.0000000   1.0000000   6.0000000   6.0000000   6.0000000   6.0000000

  Atom        21          22          23          24          25          26          27          28          29          30
 IAtWgt=           1           1          12          12          12          12           1           1          12          12
 AtmWgt=   1.0078250   1.0078250  12.0000000  12.0000000  12.0000000  12.0000000   1.0078250   1.0078250  12.0000000  12.0000000
 NucSpn=           1           1           0           0           0           0           1           1           0           0
 AtZEff=   0.0000000   0.0000000   0.0000000   0.0000000   0.0000000   0.0000000   0.0000000   0.0000000   0.0000000   0.0000000
 NQMom=    0.0000000   0.0000000   0.0000000   0.0000000   0.0000000   0.0000000   0.0000000   0.0000000   0.0000000   0.0000000
 NMagM=    2.7928460   2.7928460   0.0000000   0.0000000   0.0000000   0.0000000   2.7928460   2.7928460   0.0000000   0.0000000
 AtZNuc=   1.0000000   1.0000000   6.0000000   6.0000000   6.0000000   6.0000000   1.0000000   1.0000000   6.0000000   6.0000000

  Atom        31          32          33          34          35          36          37          38          39          40
 IAtWgt=          12          12           1           1           1           1          12          12          12          12
 AtmWgt=  12.0000000  12.0000000   1.0078250   1.0078250   1.0078250   1.0078250  12.0000000  12.0000000  12.0000000  12.0000000
 NucSpn=           0           0           1           1           1           1           0           0           0           0
 AtZEff=   0.0000000   0.0000000   0.0000000   0.0000000   0.0000000   0.0000000   0.0000000   0.0000000   0.0000000   0.0000000
 NQMom=    0.0000000   0.0000000   0.0000000   0.0000000   0.0000000   0.0000000   0.0000000   0.0000000   0.0000000   0.0000000
 NMagM=    0.0000000   0.0000000   2.7928460   2.7928460   2.7928460   2.7928460   0.0000000   0.0000000   0.0000000   0.0000000
 AtZNuc=   6.0000000   6.0000000   1.0000000   1.0000000   1.0000000   1.0000000   6.0000000   6.0000000   6.0000000   6.0000000

  Atom        41          42          43          44          45          46          47          48          49          50
 IAtWgt=          12          12          12          12          12          12           1           1           1           1
 AtmWgt=  12.0000000  12.0000000  12.0000000  12.0000000  12.0000000  12.0000000   1.0078250   1.0078250   1.0078250   1.0078250
 NucSpn=           0           0           0           0           0           0           1           1           1           1
 AtZEff=   0.0000000   0.0000000   0.0000000   0.0000000   0.0000000   0.0000000   0.0000000   0.0000000   0.0000000   0.0000000
 NQMom=    0.0000000   0.0000000   0.0000000   0.0000000   0.0000000   0.0000000   0.0000000   0.0000000   0.0000000   0.0000000
 NMagM=    0.0000000   0.0000000   0.0000000   0.0000000   0.0000000   0.0000000   2.7928460   2.7928460   2.7928460   2.7928460
 AtZNuc=   6.0000000   6.0000000   6.0000000   6.0000000   6.0000000   6.0000000   1.0000000   1.0000000   1.0000000   1.0000000

  Atom        51          52          53          54          55          56          57          58          59          60
 IAtWgt=           1           1          12          12          12          12           1           1          12          12
 AtmWgt=   1.0078250   1.0078250  12.0000000  12.0000000  12.0000000  12.0000000   1.0078250   1.0078250  12.0000000  12.0000000
 NucSpn=           1           1           0           0           0           0           1           1           0           0
 AtZEff=   0.0000000   0.0000000   0.0000000   0.0000000   0.0000000   0.0000000   0.0000000   0.0000000   0.0000000   0.0000000
 NQMom=    0.0000000   0.0000000   0.0000000   0.0000000   0.0000000   0.0000000   0.0000000   0.0000000   0.0000000   0.0000000
 NMagM=    2.7928460   2.7928460   0.0000000   0.0000000   0.0000000   0.0000000   2.7928460   2.7928460   0.0000000   0.0000000
 AtZNuc=   1.0000000   1.0000000   6.0000000   6.0000000   6.0000000   6.0000000   1.0000000   1.0000000   6.0000000   6.0000000

  Atom        61          62          63          64          65          66          67          68          69          70
 IAtWgt=          12          12           1           1          12          12          12          12           1           1
 AtmWgt=  12.0000000  12.0000000   1.0078250   1.0078250  12.0000000  12.0000000  12.0000000  12.0000000   1.0078250   1.0078250
 NucSpn=           0           0           1           1           0           0           0           0           1           1
 AtZEff=   0.0000000   0.0000000   0.0000000   0.0000000   0.0000000   0.0000000   0.0000000   0.0000000   0.0000000   0.0000000
 NQMom=    0.0000000   0.0000000   0.0000000   0.0000000   0.0000000   0.0000000   0.0000000   0.0000000   0.0000000   0.0000000
 NMagM=    0.0000000   0.0000000   2.7928460   2.7928460   0.0000000   0.0000000   0.0000000   0.0000000   2.7928460   2.7928460
 AtZNuc=   6.0000000   6.0000000   1.0000000   1.0000000   6.0000000   6.0000000   6.0000000   6.0000000   1.0000000   1.0000000

  Atom        71          72
 IAtWgt=           1           1
 AtmWgt=   1.0078250   1.0078250
 NucSpn=           1           1
 AtZEff=   0.0000000   0.0000000
 NQMom=    0.0000000   0.0000000
 NMagM=    2.7928460   2.7928460
 AtZNuc=   1.0000000   1.0000000
 Leave Link  101 at Wed Sep 27 16:37:43 2023, MaxMem=  3221225472 cpu:               2.6 elap:               0.1
 (Enter /home/center/opt/aarch64/apps/gaussian16/c01/g16/l202.exe)
 Stoichiometry    C44H28
 Framework group  CS[SG(C4H4),X(C40H24)]
 Deg. of freedom   109
 Full point group                 CS      NOp   2
 Largest Abelian subgroup         CS      NOp   2
 Largest concise Abelian subgroup CS      NOp   2
                         Standard orientation:                         
 ---------------------------------------------------------------------
 Center     Atomic      Atomic             Coordinates (Angstroms)
 Number     Number       Type             X           Y           Z
 ---------------------------------------------------------------------
      1          6           0        0.108114   -2.740039    3.671276
      2          6           0       -1.345551   -2.740039    3.671276
      3          6           0        0.790015   -2.740039    4.933593
      4          6           0       -2.027452   -2.740039    4.933593
      5          6           0        0.097328   -2.740039    6.106357
      6          6           0       -1.334765   -2.740039    6.106357
      7          6           0        0.787672   -2.740039    2.463318
      8          6           0        0.108878   -2.740039    1.224029
      9          6           0       -2.025109   -2.740039    2.463317
     10          6           0       -1.346315   -2.740039    1.224029
     11          1           0        1.875044   -2.740039    4.933260
     12          1           0        1.873390   -2.740039    2.463929
     13          1           0       -3.110826   -2.740039    2.463929
     14          1           0       -3.112480   -2.740039    4.933260
     15          1           0       -1.864014   -2.740039    7.052528
     16          1           0        0.626577   -2.740039    7.052528
     17          6           0        0.788167   -2.740039    0.000000
     18          6           0        0.108878   -2.740039   -1.224029
     19          6           0       -2.025604   -2.740039    0.000000
     20          6           0       -1.346315   -2.740039   -1.224029
     21          1           0        1.873791   -2.740039    0.000000
     22          1           0       -3.111226   -2.740039    0.000000
     23          6           0        0.787672   -2.740039   -2.463318
     24          6           0        0.108114   -2.740039   -3.671276
     25          6           0       -2.025109   -2.740039   -2.463317
     26          6           0       -1.345551   -2.740039   -3.671276
     27          1           0        1.873390   -2.740039   -2.463929
     28          1           0       -3.110826   -2.740039   -2.463929
     29          6           0        0.790015   -2.740039   -4.933593
     30          6           0        0.097328   -2.740039   -6.106357
     31          6           0       -2.027452   -2.740039   -4.933593
     32          6           0       -1.334765   -2.740039   -6.106357
     33          1           0        1.875044   -2.740039   -4.933260
     34          1           0        0.626577   -2.740039   -7.052528
     35          1           0       -1.864014   -2.740039   -7.052528
     36          1           0       -3.112480   -2.740039   -4.933260
     37          6           0        0.618718    3.466871    3.671276
     38          6           0        0.618718    2.013207    3.671276
     39          6           0        0.618718    4.148772    4.933593
     40          6           0        0.618718    1.331305    4.933593
     41          6           0        0.618718    3.456085    6.106357
     42          6           0        0.618718    2.023992    6.106357
     43          6           0        0.618718    4.146430    2.463318
     44          6           0        0.618718    3.467635    1.224029
     45          6           0        0.618718    1.333648    2.463317
     46          6           0        0.618718    2.012442    1.224029
     47          1           0        0.618718    5.233801    4.933260
     48          1           0        0.618718    5.232147    2.463929
     49          1           0        0.618718    0.247932    2.463929
     50          1           0        0.618718    0.246277    4.933260
     51          1           0        0.618718    1.494743    7.052528
     52          1           0        0.618718    3.985334    7.052528
     53          6           0        0.618718    4.146925    0.000000
     54          6           0        0.618718    3.467635   -1.224029
     55          6           0        0.618718    1.333153    0.000000
     56          6           0        0.618718    2.012442   -1.224029
     57          1           0        0.618718    5.232548    0.000000
     58          1           0        0.618718    0.247531    0.000000
     59          6           0        0.618718    4.146430   -2.463318
     60          6           0        0.618718    3.466871   -3.671276
     61          6           0        0.618718    1.333648   -2.463317
     62          6           0        0.618718    2.013207   -3.671276
     63          1           0        0.618718    5.232147   -2.463929
     64          1           0        0.618718    0.247932   -2.463929
     65          6           0        0.618718    4.148772   -4.933593
     66          6           0        0.618718    3.456085   -6.106357
     67          6           0        0.618718    1.331305   -4.933593
     68          6           0        0.618718    2.023992   -6.106357
     69          1           0        0.618718    5.233801   -4.933260
     70          1           0        0.618718    3.985334   -7.052528
     71          1           0        0.618718    1.494743   -7.052528
     72          1           0        0.618718    0.246277   -4.933260
 ---------------------------------------------------------------------
 Rotational constants (GHZ):           0.0980777           0.0563744           0.0378459
 Leave Link  202 at Wed Sep 27 16:37:45 2023, MaxMem=  3221225472 cpu:               0.6 elap:               0.0
 (Enter /home/center/opt/aarch64/apps/gaussian16/c01/g16/l122.exe)
 Counterpoise: doing full-system calculation.
 Leave Link  122 at Wed Sep 27 16:37:47 2023, MaxMem=  3221225472 cpu:               0.2 elap:               0.0
 (Enter /home/center/opt/aarch64/apps/gaussian16/c01/g16/l301.exe)
 Standard basis: 6-311G(d,p) (5D, 7F)
 Ernie: Thresh=  0.10000D-02 Tol=  0.10000D-05 Strict=F.
 There are   528 symmetry adapted cartesian basis functions of A'  symmetry.
 There are   476 symmetry adapted cartesian basis functions of A"  symmetry.
 There are   504 symmetry adapted basis functions of A'  symmetry.
 There are   456 symmetry adapted basis functions of A"  symmetry.
   960 basis functions,  1632 primitive gaussians,  1004 cartesian basis functions
   146 alpha electrons      146 beta electrons
       nuclear repulsion energy      4566.0092421831 Hartrees.
 IExCor=  402 DFT=T Ex+Corr=B3LYP ExCW=0 ScaHFX=  0.200000
 ScaDFX=  0.800000  0.720000  1.000000  0.810000 ScalE2=  1.000000  1.000000
 IRadAn=      5 IRanWt=     -1 IRanGd=            0 ICorTp=0 IEmpDi=131
 NAtoms=   72 NActive=   72 NUniq=   40 SFac= 3.24D+00 NAtFMM=   60 NAOKFM=T Big=F
 Integral buffers will be    131072 words long.
 Raffenetti 2 integral format.
 Two-electron integral symmetry is turned on.
 R6Disp:  Grimme-D3 Dispersion energy=       -0.0759584435 Hartrees.
 Nuclear repulsion after empirical dispersion term =     4565.9332837395 Hartrees.
 Leave Link  301 at Wed Sep 27 16:37:50 2023, MaxMem=  3221225472 cpu:               2.0 elap:               0.1
 (Enter /home/center/opt/aarch64/apps/gaussian16/c01/g16/l302.exe)
 NPDir=0 NMtPBC=     1 NCelOv=     1 NCel=       1 NClECP=     1 NCelD=      1
         NCelK=      1 NCelE2=     1 NClLst=     1 CellRange=     0.0.
 One-electron integrals computed using PRISM.
 One-electron integral symmetry used in STVInt
 NBasis=   960 RedAO= T EigKep=  3.81D-05  NBF=   504   456
 NBsUse=   960 1.00D-06 EigRej= -1.00D+00 NBFU=   504   456
 Precomputing XC quadrature grid using
 IXCGrd= 4 IRadAn=           5 IRanWt=          -1 IRanGd=           0 AccXCQ= 0.00D+00.
 Generated NRdTot=       0 NPtTot=           0 NUsed=           0 NTot=          32
 NSgBfM=   989   989   989   989   989 MxSgAt=    72 MxSgA2=    72.
 Leave Link  302 at Wed Sep 27 16:37:54 2023, MaxMem=  3221225472 cpu:              64.1 elap:               2.0
 (Enter /home/center/opt/aarch64/apps/gaussian16/c01/g16/l303.exe)
 DipDrv:  MaxL=1.
 Leave Link  303 at Wed Sep 27 16:37:57 2023, MaxMem=  3221225472 cpu:              13.7 elap:               0.4
 (Enter /home/center/opt/aarch64/apps/gaussian16/c01/g16/l401.exe)
 ExpMin= 1.03D-01 ExpMax= 4.56D+03 ExpMxC= 6.82D+02 IAcc=3 IRadAn=         5 AccDes= 0.00D+00
 Harris functional with IExCor=  402 and IRadAn=       5 diagonalized for initial guess.
 HarFok:  IExCor=  402 AccDes= 0.00D+00 IRadAn=         5 IDoV= 1 UseB2=F ITyADJ=14
 ICtDFT=  3500011 ScaDFX=  1.000000  1.000000  1.000000  1.000000
 FoFCou: FMM=F IPFlag=           0 FMFlag=      100000 FMFlg1=        2000
         NFxFlg=           0 DoJE=T BraDBF=F KetDBF=T FulRan=T
         wScrn=  0.000000 ICntrl=       500 IOpCl=  0 I1Cent=   200000004 NGrid=           0
         NMat0=    1 NMatS0=      1 NMatT0=    0 NMatD0=    1 NMtDS0=    0 NMtDT0=    0
 Petite list used in FoFCou.
 Harris En= -1694.13816569304    
 JPrj=0 DoOrth=F DoCkMO=F.
 Initial guess orbital symmetries:
       Occupied  (A") (A') (A") (A') (A') (A") (A') (A") (A") (A')
                 (A") (A') (A") (A') (A") (A') (A") (A') (A') (A")
                 (A") (A') (A") (A') (A') (A') (A') (A') (A") (A')
                 (A") (A') (A") (A') (A") (A') (A") (A') (A") (A')
                 (A') (A") (A') (A") (A') (A') (A") (A") (A') (A')
                 (A") (A") (A') (A') (A') (A') (A") (A") (A') (A')
                 (A") (A") (A") (A") (A') (A') (A') (A') (A") (A")
                 (A") (A") (A') (A') (A") (A") (A') (A') (A') (A')
                 (A') (A') (A") (A") (A") (A") (A") (A") (A') (A')
                 (A') (A') (A") (A") (A') (A') (A') (A') (A") (A")
                 (A') (A') (A") (A") (A") (A") (A') (A') (A') (A')
                 (A") (A") (A') (A') (A") (A") (A') (A') (A") (A")
                 (A") (A") (A') (A') (A') (A') (A") (A") (A') (A')
                 (A") (A") (A') (A') (A") (A") (A') (A') (A') (A')
                 (A") (A") (A") (A") (A') (A')
       Virtual   (A') (A') (A") (A") (A") (A") (A') (A') (A') (A')
                 (A") (A") (A') (A') (A") (A") (A') (A") (A') (A')
                 (A') (A') (A") (A') (A') (A") (A") (A') (A") (A")
                 (A') (A") (A') (A") (A') (A') (A") (A") (A") (A')
                 (A') (A") (A') (A") (A') (A') (A") (A') (A') (A')
                 (A') (A") (A') (A") (A') (A') (A") (A") (A') (A')
                 (A") (A") (A") (A") (A') (A') (A") (A") (A') (A")
                 (A') (A") (A') (A') (A") (A') (A") (A") (A') (A")
                 (A') (A') (A') (A") (A') (A') (A') (A") (A") (A')
                 (A") (A') (A") (A") (A') (A') (A") (A') (A") (A")
                 (A') (A") (A') (A") (A") (A') (A') (A") (A') (A')
                 (A') (A') (A") (A') (A') (A") (A') (A") (A') (A")
                 (A") (A') (A") (A') (A") (A') (A") (A") (A') (A')
                 (A") (A") (A') (A") (A") (A') (A') (A") (A") (A')
                 (A") (A') (A') (A') (A') (A") (A') (A') (A') (A')
                 (A") (A") (A") (A') (A') (A") (A') (A") (A') (A')
                 (A") (A") (A") (A') (A") (A') (A") (A') (A') (A")
                 (A") (A') (A") (A') (A") (A') (A') (A") (A') (A")
                 (A') (A") (A") (A') (A') (A") (A') (A') (A') (A")
                 (A') (A") (A') (A") (A') (A") (A') (A') (A") (A")
                 (A") (A') (A') (A') (A") (A') (A") (A') (A') (A")
                 (A") (A') (A') (A") (A') (A") (A") (A") (A") (A')
                 (A") (A') (A") (A') (A") (A') (A") (A') (A') (A")
                 (A') (A') (A') (A") (A') (A") (A') (A") (A") (A')
                 (A") (A') (A") (A') (A') (A") (A') (A") (A') (A")
                 (A") (A") (A') (A") (A') (A') (A') (A") (A") (A')
                 (A') (A') (A") (A') (A") (A") (A") (A') (A") (A')
                 (A") (A') (A") (A") (A') (A') (A") (A') (A") (A")
                 (A') (A") (A') (A') (A') (A') (A") (A') (A") (A")
                 (A') (A') (A') (A") (A") (A") (A") (A') (A") (A")
                 (A") (A') (A') (A') (A') (A") (A') (A') (A') (A")
                 (A") (A") (A') (A") (A") (A") (A') (A') (A') (A')
                 (A") (A') (A") (A') (A') (A') (A") (A") (A") (A')
                 (A") (A") (A') (A") (A') (A') (A") (A') (A') (A")
                 (A") (A') (A') (A") (A") (A') (A") (A') (A') (A")
                 (A') (A') (A") (A') (A") (A') (A') (A") (A') (A")
                 (A') (A') (A') (A") (A') (A") (A") (A") (A") (A")
                 (A") (A') (A") (A') (A") (A") (A') (A') (A') (A')
                 (A") (A') (A") (A') (A') (A') (A') (A") (A') (A")
                 (A") (A') (A') (A') (A") (A') (A") (A") (A") (A')
                 (A") (A') (A") (A') (A") (A') (A') (A") (A") (A')
                 (A') (A") (A') (A') (A") (A') (A") (A') (A") (A')
                 (A') (A') (A') (A") (A") (A') (A') (A") (A") (A')
                 (A") (A") (A") (A') (A") (A') (A") (A") (A') (A")
                 (A') (A") (A') (A") (A') (A") (A') (A") (A') (A")
                 (A') (A') (A') (A") (A') (A") (A') (A') (A") (A")
                 (A') (A") (A") (A') (A') (A") (A") (A') (A") (A")
                 (A') (A') (A") (A') (A") (A') (A") (A') (A") (A')
                 (A") (A') (A') (A') (A") (A') (A") (A") (A") (A')
                 (A") (A') (A") (A") (A") (A") (A") (A') (A") (A')
                 (A') (A") (A') (A') (A") (A') (A') (A') (A") (A')
                 (A") (A') (A') (A') (A") (A") (A") (A") (A') (A')
                 (A") (A') (A") (A') (A") (A") (A') (A') (A') (A")
                 (A") (A') (A') (A') (A") (A") (A') (A") (A") (A')
                 (A") (A") (A') (A') (A') (A") (A") (A") (A') (A")
                 (A') (A") (A') (A") (A') (A") (A") (A') (A') (A')
                 (A") (A') (A") (A') (A') (A") (A') (A") (A') (A")
                 (A') (A") (A") (A') (A") (A') (A') (A") (A") (A')
                 (A') (A') (A') (A") (A') (A") (A") (A') (A") (A')
                 (A') (A') (A') (A") (A') (A") (A') (A') (A") (A')
                 (A") (A") (A") (A') (A") (A') (A") (A") (A') (A')
                 (A') (A") (A") (A') (A") (A') (A') (A") (A') (A")
                 (A') (A") (A") (A") (A') (A') (A") (A") (A') (A')
                 (A') (A') (A') (A') (A") (A') (A") (A") (A") (A')
                 (A') (A") (A") (A") (A") (A') (A") (A') (A") (A')
                 (A') (A') (A") (A') (A') (A') (A") (A') (A") (A')
                 (A') (A") (A") (A') (A") (A") (A') (A') (A') (A")
                 (A') (A") (A") (A') (A") (A') (A") (A") (A') (A')
                 (A") (A') (A') (A") (A') (A") (A') (A") (A") (A")
                 (A') (A') (A") (A') (A') (A') (A") (A") (A") (A')
                 (A') (A") (A') (A") (A') (A") (A') (A") (A') (A")
                 (A") (A') (A") (A") (A') (A') (A') (A') (A") (A")
                 (A') (A') (A") (A") (A') (A') (A") (A') (A') (A")
                 (A') (A") (A") (A') (A") (A') (A") (A') (A') (A")
                 (A') (A") (A') (A') (A") (A") (A') (A') (A') (A')
                 (A") (A') (A") (A') (A") (A") (A') (A') (A") (A")
                 (A") (A") (A') (A') (A") (A") (A') (A") (A') (A")
                 (A') (A') (A") (A") (A') (A') (A') (A') (A") (A")
                 (A") (A") (A') (A') (A") (A") (A') (A') (A') (A')
                 (A") (A") (A") (A") (A') (A') (A') (A') (A") (A")
                 (A') (A') (A") (A") (A') (A') (A") (A') (A") (A')
                 (A') (A") (A') (A")
 The electronic state of the initial guess is 1-A'.
 Leave Link  401 at Wed Sep 27 16:38:02 2023, MaxMem=  3221225472 cpu:             106.9 elap:               2.7
 (Enter /home/center/opt/aarch64/apps/gaussian16/c01/g16/l502.exe)
 Integral symmetry usage will be decided dynamically.
 Closed shell SCF:
 Using DIIS extrapolation, IDIIS=  1040.
 NGot=  3221225472 LenX=  3219153746 LenY=  3218144726
 Requested convergence on RMS density matrix=1.00D-08 within 128 cycles.
 Requested convergence on MAX density matrix=1.00D-06.
 Requested convergence on             energy=1.00D-06.
 No special actions if energy rises.
 Fock matrices will be formed incrementally for  20 cycles.
 Integral accuracy reduced to 1.0D-05 until final iterations.

 Cycle   1  Pass 0  IDiag  1:
 FoFJK:  IHMeth= 1 ICntrl=       0 DoSepK=F KAlg= 0 I1Cent=           0 FoldK=F
 IRaf= 540000000 NMat=       1 IRICut=       1 DoRegI=T DoRafI=F ISym2E= 1 IDoP0=0 IntGTp=1.
 FoFCou: FMM=F IPFlag=           0 FMFlag=      100000 FMFlg1=        2000
         NFxFlg=           0 DoJE=F BraDBF=F KetDBF=F FulRan=T
         wScrn=  0.000000 ICntrl=         0 IOpCl=  0 I1Cent=           0 NGrid=           0
         NMat0=    1 NMatS0=      1 NMatT0=    0 NMatD0=    1 NMtDS0=    0 NMtDT0=    0
 Petite list used in FoFCou.
 E= -1693.16569100060    
 DIIS: error= 4.53D-02 at cycle   1 NSaved=   1.
 NSaved= 1 IEnMin= 1 EnMin= -1693.16569100060     IErMin= 1 ErrMin= 4.53D-02
 ErrMax= 4.53D-02  0.00D+00 EMaxC= 1.00D-01 BMatC= 9.02D-01 BMatP= 9.02D-01
 IDIUse=3 WtCom= 5.47D-01 WtEn= 4.53D-01
 Coeff-Com:  0.100D+01
 Coeff-En:   0.100D+01
 Coeff:      0.100D+01
 Gap=     0.066 Goal=   None    Shift=    0.000
 GapD=    0.066 DampG=0.500 DampE=0.500 DampFc=0.2500 IDamp=-1.
 Damping current iteration by 2.50D-01
 RMSDP=1.72D-03 MaxDP=8.41D-02              OVMax= 1.57D-01

 Cycle   2  Pass 0  IDiag  1:
 RMSU=  4.17D-04    CP:  9.82D-01
 E= -1693.47636520436     Delta-E=       -0.310674203763 Rises=F Damp=T
 DIIS: error= 2.63D-02 at cycle   2 NSaved=   2.
 NSaved= 2 IEnMin= 2 EnMin= -1693.47636520436     IErMin= 2 ErrMin= 2.63D-02
 ErrMax= 2.63D-02  0.00D+00 EMaxC= 1.00D-01 BMatC= 2.99D-01 BMatP= 9.02D-01
 IDIUse=3 WtCom= 7.37D-01 WtEn= 2.63D-01
 Coeff-Com: -0.121D+01 0.221D+01
 Coeff-En:   0.000D+00 0.100D+01
 Coeff:     -0.889D+00 0.189D+01
 Gap=     0.066 Goal=   None    Shift=    0.000
 RMSDP=6.93D-04 MaxDP=3.33D-02 DE=-3.11D-01 OVMax= 8.22D-02

 Cycle   3  Pass 0  IDiag  1:
 RMSU=  4.45D-04    CP:  9.56D-01  2.22D+00
 E= -1694.04461943645     Delta-E=       -0.568254232087 Rises=F Damp=F
 DIIS: error= 4.85D-03 at cycle   3 NSaved=   3.
 NSaved= 3 IEnMin= 3 EnMin= -1694.04461943645     IErMin= 3 ErrMin= 4.85D-03
 ErrMax= 4.85D-03  0.00D+00 EMaxC= 1.00D-01 BMatC= 1.15D-02 BMatP= 2.99D-01
 IDIUse=3 WtCom= 9.51D-01 WtEn= 4.85D-02
 Coeff-Com: -0.245D+00 0.508D+00 0.737D+00
 Coeff-En:   0.000D+00 0.000D+00 0.100D+01
 Coeff:     -0.233D+00 0.483D+00 0.750D+00
 Gap=     0.070 Goal=   None    Shift=    0.000
 RMSDP=2.34D-04 MaxDP=1.23D-02 DE=-5.68D-01 OVMax= 8.46D-02

 Cycle   4  Pass 0  IDiag  1:
 RMSU=  2.04D-04    CP:  9.57D-01  2.11D+00  7.58D-01
 E= -1694.04041490813     Delta-E=        0.004204528319 Rises=F Damp=F
 DIIS: error= 7.07D-03 at cycle   4 NSaved=   4.
 NSaved= 4 IEnMin= 3 EnMin= -1694.04461943645     IErMin= 3 ErrMin= 4.85D-03
 ErrMax= 7.07D-03  0.00D+00 EMaxC= 1.00D-01 BMatC= 1.35D-02 BMatP= 1.15D-02
 IDIUse=3 WtCom= 1.06D-01 WtEn= 8.94D-01
 Coeff-Com: -0.374D-01 0.107D+00 0.525D+00 0.406D+00
 Coeff-En:   0.000D+00 0.000D+00 0.562D+00 0.438D+00
 Coeff:     -0.397D-02 0.113D-01 0.558D+00 0.434D+00
 Gap=     0.067 Goal=   None    Shift=    0.000
 RMSDP=1.43D-04 MaxDP=8.28D-03 DE= 4.20D-03 OVMax= 6.86D-02

 Cycle   5  Pass 0  IDiag  1:
 RMSU=  8.04D-05    CP:  9.57D-01  2.10D+00  8.29D-01  4.41D-01
 E= -1694.05550576414     Delta-E=       -0.015090856010 Rises=F Damp=F
 DIIS: error= 1.86D-03 at cycle   5 NSaved=   5.
 NSaved= 5 IEnMin= 5 EnMin= -1694.05550576414     IErMin= 5 ErrMin= 1.86D-03
 ErrMax= 1.86D-03  0.00D+00 EMaxC= 1.00D-01 BMatC= 1.04D-03 BMatP= 1.15D-02
 IDIUse=3 WtCom= 9.81D-01 WtEn= 1.86D-02
 Coeff-Com: -0.163D-01 0.346D-01 0.243D+00 0.246D+00 0.493D+00
 Coeff-En:   0.000D+00 0.000D+00 0.000D+00 0.327D-01 0.967D+00
 Coeff:     -0.160D-01 0.339D-01 0.239D+00 0.242D+00 0.502D+00
 Gap=     0.067 Goal=   None    Shift=    0.000
 RMSDP=4.66D-05 MaxDP=2.70D-03 DE=-1.51D-02 OVMax= 2.35D-02

 Cycle   6  Pass 0  IDiag  1:
 RMSU=  2.33D-05    CP:  9.57D-01  2.12D+00  8.35D-01  5.24D-01  5.62D-01
 E= -1694.05646146113     Delta-E=       -0.000955696994 Rises=F Damp=F
 DIIS: error= 9.96D-04 at cycle   6 NSaved=   6.
 NSaved= 6 IEnMin= 6 EnMin= -1694.05646146113     IErMin= 6 ErrMin= 9.96D-04
 ErrMax= 9.96D-04  0.00D+00 EMaxC= 1.00D-01 BMatC= 2.28D-04 BMatP= 1.04D-03
 IDIUse=3 WtCom= 9.90D-01 WtEn= 9.96D-03
 Coeff-Com: -0.567D-02 0.843D-02 0.992D-01 0.117D+00 0.359D+00 0.422D+00
 Coeff-En:   0.000D+00 0.000D+00 0.000D+00 0.000D+00 0.186D+00 0.814D+00
 Coeff:     -0.561D-02 0.835D-02 0.982D-01 0.116D+00 0.357D+00 0.426D+00
 Gap=     0.067 Goal=   None    Shift=    0.000
 RMSDP=1.90D-05 MaxDP=1.28D-03 DE=-9.56D-04 OVMax= 1.05D-02

 Cycle   7  Pass 0  IDiag  1:
 RMSU=  8.32D-06    CP:  9.57D-01  2.13D+00  8.37D-01  5.03D-01  6.19D-01
                    CP:  3.22D-01
 E= -1694.05671673696     Delta-E=       -0.000255275828 Rises=F Damp=F
 DIIS: error= 3.04D-04 at cycle   7 NSaved=   7.
 NSaved= 7 IEnMin= 7 EnMin= -1694.05671673696     IErMin= 7 ErrMin= 3.04D-04
 ErrMax= 3.04D-04  0.00D+00 EMaxC= 1.00D-01 BMatC= 1.83D-05 BMatP= 2.28D-04
 IDIUse=3 WtCom= 9.97D-01 WtEn= 3.04D-03
 Coeff-Com: -0.212D-02 0.252D-02 0.529D-01 0.635D-01 0.211D+00 0.292D+00
 Coeff-Com:  0.380D+00
 Coeff-En:   0.000D+00 0.000D+00 0.000D+00 0.000D+00 0.000D+00 0.243D-01
 Coeff-En:   0.976D+00
 Coeff:     -0.212D-02 0.251D-02 0.528D-01 0.633D-01 0.211D+00 0.291D+00
 Coeff:      0.382D+00
 Gap=     0.067 Goal=   None    Shift=    0.000
 RMSDP=5.27D-06 MaxDP=2.67D-04 DE=-2.55D-04 OVMax= 2.20D-03

 Initial convergence to 1.0D-05 achieved.  Increase integral accuracy.
 Cycle   8  Pass 1  IDiag  1:
 E= -1694.05637828576     Delta-E=        0.000338451201 Rises=F Damp=F
 DIIS: error= 6.08D-04 at cycle   1 NSaved=   1.
 NSaved= 1 IEnMin= 1 EnMin= -1694.05637828576     IErMin= 1 ErrMin= 6.08D-04
 ErrMax= 6.08D-04  0.00D+00 EMaxC= 1.00D-01 BMatC= 4.86D-05 BMatP= 4.86D-05
 IDIUse=3 WtCom= 9.94D-01 WtEn= 6.08D-03
 Coeff-Com:  0.100D+01
 Coeff-En:   0.100D+01
 Coeff:      0.100D+01
 Gap=     0.067 Goal=   None    Shift=    0.000
 RMSDP=5.27D-06 MaxDP=2.67D-04 DE= 3.38D-04 OVMax= 1.46D-03

 Cycle   9  Pass 1  IDiag  1:
 RMSU=  3.15D-04    CP:  9.99D-01
 E= -1694.05642410742     Delta-E=       -0.000045821665 Rises=F Damp=F
 DIIS: error= 8.35D-05 at cycle   2 NSaved=   2.
 NSaved= 2 IEnMin= 2 EnMin= -1694.05642410742     IErMin= 2 ErrMin= 8.35D-05
 ErrMax= 8.35D-05  0.00D+00 EMaxC= 1.00D-01 BMatC= 2.32D-06 BMatP= 4.86D-05
 IDIUse=1 WtCom= 1.00D+00 WtEn= 0.00D+00
 Coeff-Com:  0.577D-01 0.942D+00
 Coeff:      0.577D-01 0.942D+00
 Gap=     0.067 Goal=   None    Shift=    0.000
 RMSDP=6.03D-06 MaxDP=2.83D-04 DE=-4.58D-05 OVMax= 2.25D-03

 Cycle  10  Pass 1  IDiag  1:
 RMSU=  5.12D-06    CP:  9.99D-01  1.01D+00
 E= -1694.05641368950     Delta-E=        0.000010417923 Rises=F Damp=F
 DIIS: error= 1.94D-04 at cycle   3 NSaved=   3.
 NSaved= 3 IEnMin= 2 EnMin= -1694.05642410742     IErMin= 2 ErrMin= 8.35D-05
 ErrMax= 1.94D-04  0.00D+00 EMaxC= 1.00D-01 BMatC= 1.07D-05 BMatP= 2.32D-06
 IDIUse=3 WtCom= 4.18D-01 WtEn= 5.82D-01
 Coeff-Com: -0.317D-02 0.687D+00 0.317D+00
 Coeff-En:   0.000D+00 0.770D+00 0.230D+00
 Coeff:     -0.133D-02 0.735D+00 0.266D+00
 Gap=     0.067 Goal=   None    Shift=    0.000
 RMSDP=3.14D-06 MaxDP=1.75D-04 DE= 1.04D-05 OVMax= 1.55D-03

 Cycle  11  Pass 1  IDiag  1:
 RMSU=  9.54D-07    CP:  9.99D-01  1.01D+00  4.18D-01
 E= -1694.05642643736     Delta-E=       -0.000012747858 Rises=F Damp=F
 DIIS: error= 3.27D-05 at cycle   4 NSaved=   4.
 NSaved= 4 IEnMin= 4 EnMin= -1694.05642643736     IErMin= 4 ErrMin= 3.27D-05
 ErrMax= 3.27D-05  0.00D+00 EMaxC= 1.00D-01 BMatC= 3.32D-07 BMatP= 2.32D-06
 IDIUse=1 WtCom= 1.00D+00 WtEn= 0.00D+00
 Coeff-Com: -0.379D-02 0.446D+00 0.151D+00 0.407D+00
 Coeff:     -0.379D-02 0.446D+00 0.151D+00 0.407D+00
 Gap=     0.067 Goal=   None    Shift=    0.000
 RMSDP=5.70D-07 MaxDP=2.87D-05 DE=-1.27D-05 OVMax= 1.35D-04

 Cycle  12  Pass 1  IDiag  1:
 RMSU=  3.74D-07    CP:  9.99D-01  1.01D+00  3.40D-01  8.37D-01
 E= -1694.05642677409     Delta-E=       -0.000000336734 Rises=F Damp=F
 DIIS: error= 4.72D-06 at cycle   5 NSaved=   5.
 NSaved= 5 IEnMin= 5 EnMin= -1694.05642677409     IErMin= 5 ErrMin= 4.72D-06
 ErrMax= 4.72D-06  0.00D+00 EMaxC= 1.00D-01 BMatC= 3.46D-09 BMatP= 3.32D-07
 IDIUse=1 WtCom= 1.00D+00 WtEn= 0.00D+00
 Coeff-Com: -0.221D-02 0.252D+00 0.840D-01 0.244D+00 0.422D+00
 Coeff:     -0.221D-02 0.252D+00 0.840D-01 0.244D+00 0.422D+00
 Gap=     0.067 Goal=   None    Shift=    0.000
 RMSDP=8.78D-08 MaxDP=4.34D-06 DE=-3.37D-07 OVMax= 3.96D-05

 Cycle  13  Pass 1  IDiag  1:
 RMSU=  8.08D-08    CP:  9.99D-01  1.01D+00  3.42D-01  8.47D-01  9.16D-01
 E= -1694.05642677803     Delta-E=       -0.000000003941 Rises=F Damp=F
 DIIS: error= 1.68D-06 at cycle   6 NSaved=   6.
 NSaved= 6 IEnMin= 6 EnMin= -1694.05642677803     IErMin= 6 ErrMin= 1.68D-06
 ErrMax= 1.68D-06  0.00D+00 EMaxC= 1.00D-01 BMatC= 5.38D-10 BMatP= 3.46D-09
 IDIUse=1 WtCom= 1.00D+00 WtEn= 0.00D+00
 Coeff-Com: -0.791D-03 0.878D-01 0.291D-01 0.890D-01 0.282D+00 0.513D+00
 Coeff:     -0.791D-03 0.878D-01 0.291D-01 0.890D-01 0.282D+00 0.513D+00
 Gap=     0.067 Goal=   None    Shift=    0.000
 RMSDP=2.64D-08 MaxDP=1.74D-06 DE=-3.94D-09 OVMax= 1.46D-05

 Cycle  14  Pass 1  IDiag  1:
 RMSU=  1.79D-08    CP:  9.99D-01  1.01D+00  3.43D-01  8.44D-01  9.46D-01
                    CP:  8.31D-01
 E= -1694.05642677862     Delta-E=       -0.000000000588 Rises=F Damp=F
 DIIS: error= 3.27D-07 at cycle   7 NSaved=   7.
 NSaved= 7 IEnMin= 7 EnMin= -1694.05642677862     IErMin= 7 ErrMin= 3.27D-07
 ErrMax= 3.27D-07  0.00D+00 EMaxC= 1.00D-01 BMatC= 1.79D-11 BMatP= 5.38D-10
 IDIUse=1 WtCom= 1.00D+00 WtEn= 0.00D+00
 Coeff-Com: -0.164D-03 0.175D-01 0.548D-02 0.197D-01 0.859D-01 0.216D+00
 Coeff-Com:  0.656D+00
 Coeff:     -0.164D-03 0.175D-01 0.548D-02 0.197D-01 0.859D-01 0.216D+00
 Coeff:      0.656D+00
 Gap=     0.067 Goal=   None    Shift=    0.000
 RMSDP=9.54D-09 MaxDP=5.22D-07 DE=-5.88D-10 OVMax= 4.18D-06

 SCF Done:  E(RB3LYP) =  -1694.05642678     A.U. after   14 cycles
            NFock= 14  Conv=0.95D-08     -V/T= 2.0044
 KE= 1.686681259111D+03 PE=-1.306231880440D+04 EE= 5.115647834768D+03
 Leave Link  502 at Wed Sep 27 16:39:39 2023, MaxMem=  3221225472 cpu:            3389.0 elap:              95.5
 (Enter /home/center/opt/aarch64/apps/gaussian16/c01/g16/l601.exe)
 Copying SCF densities to generalized density rwf, IOpCl= 0 IROHF=0.

 **********************************************************************

            Population analysis using the SCF Density.

 **********************************************************************

 Orbital symmetries:
       Occupied  (A") (A') (A') (A") (A") (A') (A") (A') (A') (A')
                 (A") (A') (A") (A') (A") (A') (A") (A') (A") (A')
                 (A") (A') (A") (A') (A") (A') (A') (A") (A") (A')
                 (A") (A') (A') (A") (A') (A") (A') (A") (A') (A')
                 (A") (A') (A") (A') (A') (A') (A") (A") (A') (A')
                 (A") (A") (A') (A') (A') (A") (A') (A") (A') (A')
                 (A") (A") (A") (A") (A') (A') (A') (A') (A") (A")
                 (A") (A') (A") (A") (A') (A') (A") (A') (A') (A')
                 (A') (A") (A") (A') (A") (A") (A') (A") (A') (A")
                 (A') (A') (A') (A") (A") (A') (A") (A") (A') (A')
                 (A') (A") (A') (A') (A') (A') (A") (A") (A') (A")
                 (A') (A') (A") (A") (A") (A") (A") (A") (A') (A')
                 (A') (A') (A') (A') (A") (A") (A') (A") (A") (A")
                 (A') (A") (A') (A') (A") (A') (A") (A') (A') (A')
                 (A") (A") (A") (A") (A') (A')
       Virtual   (A') (A') (A") (A") (A") (A") (A') (A') (A') (A")
                 (A') (A') (A") (A') (A") (A') (A') (A') (A") (A")
                 (A') (A') (A") (A") (A') (A") (A') (A') (A") (A")
                 (A") (A') (A") (A') (A') (A") (A") (A') (A") (A')
                 (A') (A') (A") (A') (A") (A') (A") (A') (A") (A')
                 (A") (A') (A') (A') (A') (A') (A') (A") (A") (A')
                 (A") (A") (A") (A") (A') (A') (A") (A") (A") (A')
                 (A') (A') (A") (A') (A") (A') (A") (A') (A") (A")
                 (A') (A') (A') (A') (A') (A') (A") (A") (A') (A")
                 (A") (A') (A') (A") (A') (A") (A') (A") (A") (A')
                 (A") (A") (A') (A') (A') (A") (A') (A") (A") (A')
                 (A") (A') (A') (A") (A') (A") (A") (A") (A') (A')
                 (A') (A") (A') (A') (A') (A') (A') (A") (A') (A")
                 (A") (A') (A") (A') (A") (A') (A') (A') (A") (A')
                 (A") (A') (A") (A') (A") (A') (A") (A") (A") (A')
                 (A") (A") (A') (A') (A") (A') (A') (A") (A') (A")
                 (A') (A') (A") (A") (A') (A') (A") (A") (A") (A')
                 (A") (A') (A") (A') (A') (A') (A') (A') (A") (A")
                 (A") (A') (A") (A') (A') (A") (A') (A") (A") (A')
                 (A") (A') (A") (A") (A') (A") (A') (A') (A') (A")
                 (A') (A") (A') (A") (A') (A") (A') (A') (A") (A')
                 (A") (A') (A") (A') (A") (A') (A") (A') (A") (A')
                 (A") (A") (A') (A") (A") (A') (A') (A') (A") (A')
                 (A') (A") (A") (A') (A') (A") (A") (A') (A") (A')
                 (A') (A") (A') (A") (A') (A") (A') (A") (A") (A')
                 (A") (A') (A') (A") (A") (A') (A") (A') (A") (A")
                 (A') (A') (A') (A") (A') (A') (A") (A') (A") (A')
                 (A") (A") (A') (A") (A') (A") (A') (A") (A") (A')
                 (A") (A') (A') (A') (A") (A") (A") (A') (A') (A")
                 (A') (A') (A") (A") (A') (A") (A') (A') (A") (A')
                 (A") (A") (A") (A") (A') (A") (A') (A') (A') (A')
                 (A") (A') (A') (A") (A') (A") (A") (A') (A") (A")
                 (A') (A") (A') (A') (A') (A") (A') (A") (A") (A")
                 (A') (A") (A') (A") (A') (A") (A') (A") (A') (A')
                 (A") (A') (A') (A') (A") (A") (A') (A') (A") (A')
                 (A") (A') (A") (A") (A') (A') (A') (A') (A') (A")
                 (A') (A") (A') (A") (A') (A") (A") (A") (A") (A')
                 (A") (A") (A') (A") (A") (A') (A") (A') (A") (A')
                 (A') (A') (A") (A') (A") (A') (A') (A") (A') (A')
                 (A') (A') (A") (A") (A') (A') (A") (A") (A") (A')
                 (A') (A") (A") (A') (A") (A') (A') (A') (A") (A")
                 (A') (A') (A") (A") (A') (A') (A") (A') (A') (A")
                 (A') (A') (A") (A') (A") (A') (A') (A") (A") (A')
                 (A") (A") (A") (A') (A") (A') (A") (A') (A") (A')
                 (A") (A') (A") (A') (A") (A") (A') (A') (A") (A")
                 (A') (A') (A") (A') (A') (A") (A") (A') (A") (A')
                 (A") (A") (A') (A') (A") (A') (A") (A') (A') (A')
                 (A") (A") (A') (A") (A') (A") (A") (A") (A') (A')
                 (A') (A") (A") (A') (A') (A') (A") (A') (A") (A")
                 (A") (A") (A') (A") (A") (A") (A") (A") (A') (A')
                 (A") (A') (A') (A') (A") (A') (A') (A') (A") (A")
                 (A') (A') (A') (A") (A') (A") (A') (A") (A') (A")
                 (A") (A") (A') (A") (A') (A') (A") (A') (A") (A')
                 (A") (A") (A') (A') (A") (A") (A') (A") (A') (A')
                 (A") (A") (A') (A') (A') (A") (A") (A") (A') (A")
                 (A') (A") (A") (A') (A") (A') (A') (A") (A') (A')
                 (A") (A') (A') (A") (A") (A') (A') (A") (A") (A")
                 (A') (A') (A') (A') (A") (A') (A') (A') (A") (A")
                 (A') (A") (A") (A') (A') (A") (A') (A") (A") (A')
                 (A") (A') (A") (A") (A") (A') (A') (A') (A') (A")
                 (A") (A') (A') (A") (A') (A") (A') (A") (A') (A')
                 (A") (A') (A') (A") (A') (A') (A") (A') (A') (A")
                 (A") (A') (A") (A') (A") (A') (A") (A") (A") (A')
                 (A") (A') (A") (A') (A') (A') (A') (A') (A") (A')
                 (A") (A") (A") (A") (A') (A") (A") (A') (A') (A')
                 (A') (A") (A') (A") (A') (A') (A") (A') (A') (A")
                 (A") (A') (A") (A') (A") (A") (A') (A') (A') (A")
                 (A') (A") (A") (A') (A") (A') (A") (A") (A') (A')
                 (A') (A') (A") (A") (A') (A") (A') (A") (A") (A")
                 (A') (A') (A") (A') (A') (A') (A") (A") (A") (A')
                 (A') (A') (A") (A") (A') (A") (A') (A") (A") (A')
                 (A") (A') (A") (A") (A') (A') (A') (A') (A") (A")
                 (A') (A') (A") (A') (A") (A') (A') (A") (A') (A")
                 (A") (A') (A") (A') (A") (A') (A') (A") (A') (A")
                 (A') (A") (A') (A") (A') (A') (A") (A') (A') (A")
                 (A') (A') (A") (A') (A") (A") (A') (A') (A") (A")
                 (A") (A') (A") (A") (A') (A") (A') (A") (A') (A")
                 (A') (A') (A") (A") (A') (A') (A') (A') (A") (A")
                 (A") (A") (A') (A') (A") (A') (A") (A') (A') (A')
                 (A") (A") (A") (A") (A') (A') (A') (A") (A') (A")
                 (A') (A") (A') (A') (A") (A") (A') (A') (A") (A')
                 (A') (A") (A') (A")
 The electronic state is 1-A'.
 Alpha  occ. eigenvalues --  -10.19562 -10.19562 -10.19491 -10.19490 -10.19469
 Alpha  occ. eigenvalues --  -10.19469 -10.19377 -10.19377 -10.18575 -10.18538
 Alpha  occ. eigenvalues --  -10.18513 -10.18513 -10.18502 -10.18501 -10.18455
 Alpha  occ. eigenvalues --  -10.18455 -10.18384 -10.18384 -10.18368 -10.18368
 Alpha  occ. eigenvalues --  -10.18281 -10.18281 -10.18148 -10.18148 -10.18098
 Alpha  occ. eigenvalues --  -10.18098 -10.18064 -10.18063 -10.17991 -10.17991
 Alpha  occ. eigenvalues --  -10.17212 -10.17212 -10.17158 -10.17149 -10.17149
 Alpha  occ. eigenvalues --  -10.17142 -10.17142 -10.17068 -10.17068 -10.17057
 Alpha  occ. eigenvalues --  -10.17023 -10.17022 -10.16956 -10.16956  -0.89953
 Alpha  occ. eigenvalues --   -0.88550  -0.88459  -0.87098  -0.86135  -0.84792
 Alpha  occ. eigenvalues --   -0.82996  -0.81663  -0.80412  -0.79099  -0.79011
 Alpha  occ. eigenvalues --   -0.78889  -0.77772  -0.77527  -0.76558  -0.75214
 Alpha  occ. eigenvalues --   -0.74836  -0.73501  -0.73465  -0.72129  -0.69767
 Alpha  occ. eigenvalues --   -0.68416  -0.67917  -0.66585  -0.63300  -0.62927
 Alpha  occ. eigenvalues --   -0.61961  -0.61668  -0.61622  -0.60513  -0.60280
 Alpha  occ. eigenvalues --   -0.59848  -0.59152  -0.58513  -0.58243  -0.56934
 Alpha  occ. eigenvalues --   -0.53266  -0.53117  -0.52839  -0.51953  -0.51786
 Alpha  occ. eigenvalues --   -0.51542  -0.50187  -0.49066  -0.48863  -0.47782
 Alpha  occ. eigenvalues --   -0.47691  -0.46643  -0.46400  -0.46104  -0.46042
 Alpha  occ. eigenvalues --   -0.45348  -0.44815  -0.44714  -0.44482  -0.43707
 Alpha  occ. eigenvalues --   -0.43190  -0.43095  -0.42430  -0.42349  -0.42113
 Alpha  occ. eigenvalues --   -0.41944  -0.41786  -0.41273  -0.40997  -0.40951
 Alpha  occ. eigenvalues --   -0.40771  -0.40618  -0.40184  -0.39909  -0.39658
 Alpha  occ. eigenvalues --   -0.38834  -0.38729  -0.37431  -0.37352  -0.36876
 Alpha  occ. eigenvalues --   -0.36081  -0.35999  -0.35625  -0.34705  -0.34662
 Alpha  occ. eigenvalues --   -0.34335  -0.33601  -0.33485  -0.33329  -0.33024
 Alpha  occ. eigenvalues --   -0.32673  -0.32205  -0.31722  -0.30828  -0.30191
 Alpha  occ. eigenvalues --   -0.28991  -0.28902  -0.27688  -0.27196  -0.25869
 Alpha  occ. eigenvalues --   -0.24984  -0.23632  -0.23171  -0.21828  -0.18466
 Alpha  occ. eigenvalues --   -0.17081
 Alpha virt. eigenvalues --   -0.10374  -0.08989  -0.05069  -0.03718  -0.03376
 Alpha virt. eigenvalues --   -0.02013  -0.00773   0.00602   0.01469   0.01662
 Alpha virt. eigenvalues --    0.02333   0.02790   0.03124   0.03778   0.03961
 Alpha virt. eigenvalues --    0.04005   0.04561   0.05349   0.05645   0.05904
 Alpha virt. eigenvalues --    0.05995   0.06504   0.07242   0.07660   0.07771
 Alpha virt. eigenvalues --    0.07860   0.08771   0.08993   0.09026   0.09569
 Alpha virt. eigenvalues --    0.09855   0.10038   0.10915   0.10999   0.11099
 Alpha virt. eigenvalues --    0.11774   0.12601   0.12926   0.13378   0.13718
 Alpha virt. eigenvalues --    0.14233   0.14868   0.15317   0.15711   0.17545
 Alpha virt. eigenvalues --    0.17814   0.18331   0.18741   0.18876   0.19375
 Alpha virt. eigenvalues --    0.19556   0.20297   0.22330   0.22462   0.23647
 Alpha virt. eigenvalues --    0.23792   0.23940   0.24269   0.25086   0.25201
 Alpha virt. eigenvalues --    0.25519   0.26220   0.27004   0.27103   0.27506
 Alpha virt. eigenvalues --    0.27707   0.28062   0.28215   0.28751   0.28766
 Alpha virt. eigenvalues --    0.28936   0.29279   0.29638   0.30087   0.30110
 Alpha virt. eigenvalues --    0.30284   0.30663   0.31311   0.31483   0.32052
 Alpha virt. eigenvalues --    0.32351   0.34152   0.34385   0.35028   0.35596
 Alpha virt. eigenvalues --    0.35757   0.35814   0.36149   0.36670   0.36896
 Alpha virt. eigenvalues --    0.36916   0.37494   0.37752   0.37799   0.37957
 Alpha virt. eigenvalues --    0.38379   0.38510   0.38560   0.38865   0.39121
 Alpha virt. eigenvalues --    0.39245   0.39510   0.39675   0.39856   0.40094
 Alpha virt. eigenvalues --    0.40369   0.40537   0.40845   0.41398   0.41409
 Alpha virt. eigenvalues --    0.41671   0.42145   0.42371   0.42373   0.42424
 Alpha virt. eigenvalues --    0.42545   0.42713   0.43070   0.43157   0.43334
 Alpha virt. eigenvalues --    0.43530   0.44075   0.44342   0.44660   0.45112
 Alpha virt. eigenvalues --    0.45224   0.45630   0.45737   0.45757   0.45896
 Alpha virt. eigenvalues --    0.46048   0.46103   0.46241   0.46440   0.46641
 Alpha virt. eigenvalues --    0.46887   0.47010   0.47174   0.47214   0.47644
 Alpha virt. eigenvalues --    0.47788   0.47930   0.48578   0.48672   0.48901
 Alpha virt. eigenvalues --    0.49113   0.49502   0.49722   0.50276   0.50283
 Alpha virt. eigenvalues --    0.50511   0.50774   0.50901   0.51587   0.51785
 Alpha virt. eigenvalues --    0.51911   0.52385   0.52578   0.53011   0.53870
 Alpha virt. eigenvalues --    0.54545   0.54569   0.54611   0.55320   0.55433
 Alpha virt. eigenvalues --    0.56589   0.56749   0.57094   0.57335   0.57360
 Alpha virt. eigenvalues --    0.58370   0.58643   0.59287   0.59429   0.59743
 Alpha virt. eigenvalues --    0.60105   0.60573   0.61244   0.61385   0.61488
 Alpha virt. eigenvalues --    0.61692   0.61819   0.62139   0.62302   0.62576
 Alpha virt. eigenvalues --    0.62724   0.63154   0.63182   0.63433   0.63459
 Alpha virt. eigenvalues --    0.63947   0.64076   0.64502   0.65018   0.65583
 Alpha virt. eigenvalues --    0.65966   0.65994   0.66433   0.66643   0.66693
 Alpha virt. eigenvalues --    0.67312   0.67610   0.68508   0.69708   0.70154
 Alpha virt. eigenvalues --    0.70665   0.70729   0.71674   0.71862   0.72199
 Alpha virt. eigenvalues --    0.72710   0.72745   0.73328   0.73473   0.73752
 Alpha virt. eigenvalues --    0.74410   0.74910   0.75072   0.75478   0.76170
 Alpha virt. eigenvalues --    0.76244   0.76952   0.77244   0.77386   0.78124
 Alpha virt. eigenvalues --    0.78726   0.78922   0.79166   0.79446   0.80320
 Alpha virt. eigenvalues --    0.80577   0.80662   0.81337   0.81505   0.82127
 Alpha virt. eigenvalues --    0.82365   0.82964   0.83089   0.83414   0.83589
 Alpha virt. eigenvalues --    0.84264   0.84374   0.85209   0.85604   0.86059
 Alpha virt. eigenvalues --    0.86524   0.87174   0.87921   0.88801   0.89585
 Alpha virt. eigenvalues --    0.90215   0.90453   0.90852   0.91224   0.91986
 Alpha virt. eigenvalues --    0.92108   0.92195   0.93169   0.93342   0.94478
 Alpha virt. eigenvalues --    0.94533   0.94838   0.95048   0.95566   0.95753
 Alpha virt. eigenvalues --    0.96007   0.96112   0.96557   0.97460   0.97601
 Alpha virt. eigenvalues --    0.98009   0.98818   0.99190   0.99315   1.00255
 Alpha virt. eigenvalues --    1.00440   1.01360   1.01422   1.01880   1.02170
 Alpha virt. eigenvalues --    1.02622   1.03120   1.03460   1.04063   1.04119
 Alpha virt. eigenvalues --    1.04600   1.05035   1.05041   1.05330   1.05681
 Alpha virt. eigenvalues --    1.06047   1.06148   1.06156   1.06329   1.06620
 Alpha virt. eigenvalues --    1.06792   1.07079   1.07640   1.08008   1.08250
 Alpha virt. eigenvalues --    1.08743   1.09190   1.09737   1.10305   1.10598
 Alpha virt. eigenvalues --    1.10803   1.11158   1.11592   1.12833   1.12963
 Alpha virt. eigenvalues --    1.13043   1.13439   1.13853   1.13969   1.13992
 Alpha virt. eigenvalues --    1.14875   1.15276   1.15896   1.16086   1.16952
 Alpha virt. eigenvalues --    1.17263   1.18197   1.18217   1.19158   1.20191
 Alpha virt. eigenvalues --    1.21048   1.21944   1.22775   1.23470   1.24307
 Alpha virt. eigenvalues --    1.24330   1.25897   1.27744   1.27974   1.30196
 Alpha virt. eigenvalues --    1.30721   1.30805   1.32436   1.32636   1.33064
 Alpha virt. eigenvalues --    1.34155   1.35192   1.35604   1.36501   1.37426
 Alpha virt. eigenvalues --    1.38502   1.39114   1.39588   1.39976   1.40261
 Alpha virt. eigenvalues --    1.40372   1.40787   1.40836   1.41557   1.42264
 Alpha virt. eigenvalues --    1.42499   1.43428   1.43800   1.44224   1.45046
 Alpha virt. eigenvalues --    1.45198   1.45720   1.46487   1.46981   1.47125
 Alpha virt. eigenvalues --    1.47286   1.47840   1.48254   1.48868   1.49368
 Alpha virt. eigenvalues --    1.49449   1.49520   1.49953   1.50090   1.50692
 Alpha virt. eigenvalues --    1.50701   1.51415   1.51467   1.52723   1.52894
 Alpha virt. eigenvalues --    1.53006   1.53692   1.54099   1.54330   1.54357
 Alpha virt. eigenvalues --    1.54560   1.54694   1.55047   1.55111   1.55626
 Alpha virt. eigenvalues --    1.55891   1.57512   1.57692   1.57856   1.58045
 Alpha virt. eigenvalues --    1.59204   1.59290   1.59973   1.60330   1.60727
 Alpha virt. eigenvalues --    1.61516   1.61628   1.62445   1.62925   1.63990
 Alpha virt. eigenvalues --    1.64751   1.65529   1.66191   1.66248   1.67560
 Alpha virt. eigenvalues --    1.69031   1.69442   1.69849   1.70433   1.70525
 Alpha virt. eigenvalues --    1.70584   1.70825   1.71847   1.72041   1.72066
 Alpha virt. eigenvalues --    1.72962   1.73524   1.73543   1.73670   1.73816
 Alpha virt. eigenvalues --    1.73943   1.74086   1.74319   1.74853   1.75795
 Alpha virt. eigenvalues --    1.76979   1.78136   1.78475   1.79137   1.79790
 Alpha virt. eigenvalues --    1.79985   1.80028   1.80121   1.81250   1.81259
 Alpha virt. eigenvalues --    1.81889   1.81981   1.82540   1.82579   1.82957
 Alpha virt. eigenvalues --    1.83157   1.84480   1.84584   1.84635   1.85120
 Alpha virt. eigenvalues --    1.85216   1.86515   1.87082   1.87391   1.87619
 Alpha virt. eigenvalues --    1.87646   1.88267   1.88299   1.88366   1.88547
 Alpha virt. eigenvalues --    1.88794   1.88918   1.88988   1.90391   1.90848
 Alpha virt. eigenvalues --    1.91097   1.91320   1.91387   1.92146   1.92273
 Alpha virt. eigenvalues --    1.92576   1.93015   1.93339   1.93556   1.93653
 Alpha virt. eigenvalues --    1.93718   1.94041   1.94406   1.94602   1.95252
 Alpha virt. eigenvalues --    1.95752   1.95873   1.96156   1.96499   1.97365
 Alpha virt. eigenvalues --    1.98191   1.99625   2.00555   2.00598   2.00816
 Alpha virt. eigenvalues --    2.00910   2.00967   2.02264   2.02493   2.03927
 Alpha virt. eigenvalues --    2.05319   2.05548   2.07527   2.07838   2.08770
 Alpha virt. eigenvalues --    2.09238   2.09289   2.10194   2.10694   2.10888
 Alpha virt. eigenvalues --    2.11213   2.11779   2.12990   2.13826   2.14984
 Alpha virt. eigenvalues --    2.15234   2.15929   2.16461   2.16666   2.17431
 Alpha virt. eigenvalues --    2.17949   2.19529   2.20399   2.21131   2.21567
 Alpha virt. eigenvalues --    2.22382   2.22536   2.22877   2.23058   2.23530
 Alpha virt. eigenvalues --    2.24100   2.24655   2.25297   2.26402   2.26613
 Alpha virt. eigenvalues --    2.26714   2.27539   2.27577   2.27907   2.28022
 Alpha virt. eigenvalues --    2.28034   2.29190   2.29396   2.29927   2.31836
 Alpha virt. eigenvalues --    2.33359   2.34926   2.35230   2.36518   2.38750
 Alpha virt. eigenvalues --    2.38828   2.40133   2.40172   2.40619   2.41327
 Alpha virt. eigenvalues --    2.42590   2.42971   2.44667   2.44764   2.45275
 Alpha virt. eigenvalues --    2.45449   2.45892   2.46573   2.46797   2.48946
 Alpha virt. eigenvalues --    2.50298   2.52563   2.52687   2.53340   2.53929
 Alpha virt. eigenvalues --    2.54601   2.54823   2.54890   2.56317   2.56744
 Alpha virt. eigenvalues --    2.56764   2.58260   2.58642   2.58931   2.59349
 Alpha virt. eigenvalues --    2.59512   2.59948   2.60657   2.60791   2.60954
 Alpha virt. eigenvalues --    2.61037   2.61332   2.61710   2.62099   2.62828
 Alpha virt. eigenvalues --    2.62878   2.63330   2.63637   2.64174   2.64612
 Alpha virt. eigenvalues --    2.65005   2.65158   2.65826   2.66119   2.66735
 Alpha virt. eigenvalues --    2.66761   2.67280   2.67768   2.67962   2.67983
 Alpha virt. eigenvalues --    2.68614   2.68660   2.68798   2.69232   2.69516
 Alpha virt. eigenvalues --    2.69629   2.69899   2.69983   2.70347   2.70480
 Alpha virt. eigenvalues --    2.70813   2.70958   2.71395   2.72213   2.73169
 Alpha virt. eigenvalues --    2.73731   2.74160   2.74293   2.74831   2.75458
 Alpha virt. eigenvalues --    2.75746   2.76385   2.76541   2.77235   2.78148
 Alpha virt. eigenvalues --    2.78184   2.78475   2.78972   2.79110   2.79363
 Alpha virt. eigenvalues --    2.79620   2.80652   2.81248   2.81604   2.81895
 Alpha virt. eigenvalues --    2.82478   2.83123   2.84353   2.85009   2.85025
 Alpha virt. eigenvalues --    2.85960   2.86612   2.86787   2.87136   2.87323
 Alpha virt. eigenvalues --    2.89038   2.89941   2.89956   2.90510   2.91777
 Alpha virt. eigenvalues --    2.92096   2.92100   2.93199   2.93449   2.93975
 Alpha virt. eigenvalues --    2.94931   2.95376   2.95811   2.98032   2.98073
 Alpha virt. eigenvalues --    2.98740   3.00244   3.00335   3.02050   3.03147
 Alpha virt. eigenvalues --    3.04419   3.05740   3.06751   3.06926   3.07337
 Alpha virt. eigenvalues --    3.08172   3.08696   3.15649   3.15840   3.16233
 Alpha virt. eigenvalues --    3.16988   3.17337   3.17738   3.19531   3.19943
 Alpha virt. eigenvalues --    3.20829   3.21203   3.23258   3.24686   3.29081
 Alpha virt. eigenvalues --    3.29662   3.30219   3.30696   3.31351   3.32729
 Alpha virt. eigenvalues --    3.35045   3.35525   3.36185   3.36418   3.36828
 Alpha virt. eigenvalues --    3.37011   3.37169   3.37817   3.38982   3.39027
 Alpha virt. eigenvalues --    3.39749   3.40912   3.41076   3.43091   3.44898
 Alpha virt. eigenvalues --    3.45057   3.45901   3.46521   3.48732   3.48763
 Alpha virt. eigenvalues --    3.49880   3.50150   3.51100   3.51355   3.53022
 Alpha virt. eigenvalues --    3.54574   3.57151   3.58389   3.58490   3.59776
 Alpha virt. eigenvalues --    3.61648   3.62496   3.62715   3.63453   3.63672
 Alpha virt. eigenvalues --    3.64353   3.65972   3.66276   3.66409   3.67587
 Alpha virt. eigenvalues --    3.68080   3.68317   3.69666   3.69707   4.00038
 Alpha virt. eigenvalues --    4.00095   4.01404   4.01662   4.01794   4.01808
 Alpha virt. eigenvalues --    4.02817   4.03148   4.15698   4.16239   4.17259
 Alpha virt. eigenvalues --    4.17717   4.18344   4.20142   4.20929   4.22017
 Alpha virt. eigenvalues --    4.22153   4.22754   4.23718   4.24796   4.25462
 Alpha virt. eigenvalues --    4.28016   4.38079   4.40153   4.61780   4.63693
 Alpha virt. eigenvalues --    4.78612   4.79206   4.79971   4.80346   4.80777
 Alpha virt. eigenvalues --    4.81832   4.82002   4.82446   4.84038   4.84420
 Alpha virt. eigenvalues --   23.39484  23.41537  23.54857  23.57017  23.69473
 Alpha virt. eigenvalues --   23.71273  23.77380  23.78485  23.80721  23.81339
 Alpha virt. eigenvalues --   23.82050  23.82870  23.85943  23.87148  23.88859
 Alpha virt. eigenvalues --   23.89452  23.90138  23.90338  23.92010  23.93444
 Alpha virt. eigenvalues --   23.96998  23.98024  23.98500  23.99250  24.08666
 Alpha virt. eigenvalues --   24.09408  24.09921  24.10052  24.10766  24.11366
 Alpha virt. eigenvalues --   24.11789  24.13257  24.13286  24.13821  24.14827
 Alpha virt. eigenvalues --   24.15250  24.15286  24.15520  24.16520  24.16553
 Alpha virt. eigenvalues --   24.19934  24.19979  24.21376  24.21428
          Condensed to atoms (all electrons):
 Mulliken charges:
               1
     1  C   -0.037946
     2  C   -0.064176
     3  C   -0.084813
     4  C   -0.048378
     5  C   -0.087509
     6  C   -0.089979
     7  C   -0.061503
     8  C   -0.025253
     9  C    0.000496
    10  C   -0.064758
    11  H    0.085197
    12  H    0.076345
    13  H    0.077904
    14  H    0.084854
    15  H    0.097185
    16  H    0.098069
    17  C   -0.065487
    18  C   -0.025253
    19  C   -0.003794
    20  C   -0.064758
    21  H    0.075088
    22  H    0.076572
    23  C   -0.061503
    24  C   -0.037946
    25  C    0.000496
    26  C   -0.064176
    27  H    0.076345
    28  H    0.077904
    29  C   -0.084813
    30  C   -0.087509
    31  C   -0.048378
    32  C   -0.089979
    33  H    0.085197
    34  H    0.098069
    35  H    0.097185
    36  H    0.084854
    37  C   -0.031975
    38  C   -0.107454
    39  C   -0.062051
    40  C   -0.054449
    41  C   -0.087468
    42  C   -0.114702
    43  C   -0.028552
    44  C   -0.021196
    45  C   -0.013701
    46  C   -0.111012
    47  H    0.079078
    48  H    0.070973
    49  H    0.118489
    50  H    0.119950
    51  H    0.087776
    52  H    0.091606
    53  C   -0.032785
    54  C   -0.021196
    55  C   -0.017892
    56  C   -0.111012
    57  H    0.069575
    58  H    0.116628
    59  C   -0.028552
    60  C   -0.031975
    61  C   -0.013701
    62  C   -0.107454
    63  H    0.070973
    64  H    0.118489
    65  C   -0.062051
    66  C   -0.087468
    67  C   -0.054449
    68  C   -0.114702
    69  H    0.079078
    70  H    0.091606
    71  H    0.087776
    72  H    0.119950
 Sum of Mulliken charges =   0.00000
 Mulliken charges with hydrogens summed into heavy atoms:
               1
     1  C   -0.037946
     2  C   -0.064176
     3  C    0.000384
     4  C    0.036476
     5  C    0.010559
     6  C    0.007206
     7  C    0.014843
     8  C   -0.025253
     9  C    0.078399
    10  C   -0.064758
    17  C    0.009601
    18  C   -0.025253
    19  C    0.072777
    20  C   -0.064758
    23  C    0.014843
    24  C   -0.037946
    25  C    0.078399
    26  C   -0.064176
    29  C    0.000384
    30  C    0.010559
    31  C    0.036476
    32  C    0.007206
    37  C   -0.031975
    38  C   -0.107454
    39  C    0.017027
    40  C    0.065501
    41  C    0.004138
    42  C   -0.026925
    43  C    0.042421
    44  C   -0.021196
    45  C    0.104788
    46  C   -0.111012
    53  C    0.036790
    54  C   -0.021196
    55  C    0.098736
    56  C   -0.111012
    59  C    0.042421
    60  C   -0.031975
    61  C    0.104788
    62  C   -0.107454
    65  C    0.017027
    66  C    0.004138
    67  C    0.065501
    68  C   -0.026925
         Mulliken charges condensed to fragments:
      1     -0.006154
      2      0.006154
 Electronic spatial extent (au):  <R**2>=          26825.8305
 Charge=              0.0000 electrons
 Dipole moment (field-independent basis, Debye):
    X=             -0.5860    Y=             -1.3001    Z=              0.0000  Tot=              1.4261
 Quadrupole moment (field-independent basis, Debye-Ang):
   XX=           -246.0309   YY=           -248.9405   ZZ=           -219.3539
   XY=              0.3188   XZ=              0.0000   YZ=              0.0000
 Traceless Quadrupole moment (field-independent basis, Debye-Ang):
   XX=             -7.9225   YY=            -10.8321   ZZ=             18.7546
   XY=              0.3188   XZ=              0.0000   YZ=              0.0000
 Octapole moment (field-independent basis, Debye-Ang**2):
  XXX=            -51.4101  YYY=            186.5251  ZZZ=              0.0000  XYY=             10.7123
  XXY=            -75.1803  XXZ=              0.0000  XZZ=            -10.3408  YZZ=            -30.4220
  YYZ=              0.0000  XYZ=              0.0000
 Hexadecapole moment (field-independent basis, Debye-Ang**3):
 XXXX=          -1825.7987 YYYY=         -12460.0742 ZZZZ=         -21008.9859 XXXY=          -1250.3103
 XXXZ=              0.0000 YYYX=          -1260.6588 YYYZ=              0.0000 ZZZX=              0.0000
 ZZZY=              0.0000 XXYY=          -2456.5020 XXZZ=          -4246.8341 YYZZ=          -5843.3019
 XXYZ=              0.0000 YYXZ=              0.0000 ZZXY=           -369.1144
 N-N= 4.565933283740D+03 E-N=-1.306231886059D+04  KE= 1.686681259111D+03
 Symmetry A'   KE= 9.134185875320D+02
 Symmetry A"   KE= 7.732626715791D+02
 No NMR shielding tensors so no spin-rotation constants.
 Leave Link  601 at Wed Sep 27 16:39:43 2023, MaxMem=  3221225472 cpu:              53.1 elap:               1.4
 (Enter /home/center/opt/aarch64/apps/gaussian16/c01/g16/l122.exe)
 CPIOFr:  IOpCl= 0 IRwI=-1 IRwCP=  731 ICalc= -1 LCPTot=     1419224 Len1MO=     3708034 IndFrg=     1419224
 CPIOFr:  IOpCl= 0 IRwI=-1 IRwCP=  731 ICalc=  0 LCPTot=     1419224 Len1MO=     3708034 IndFrg=     5127258
 Counterpoise: doing calculation for fragment   1 using the basis set of the full-system, NewBq=T
 Leave Link  122 at Wed Sep 27 16:39:46 2023, MaxMem=  3221225472 cpu:               8.3 elap:               0.4
 (Enter /home/center/opt/aarch64/apps/gaussian16/c01/g16/l301.exe)
 Basis read from rwf:  (5D, 7F)
 No pseudopotential information found on rwf file.
 There are   528 symmetry adapted cartesian basis functions of A'  symmetry.
 There are   476 symmetry adapted cartesian basis functions of A"  symmetry.
 There are   504 symmetry adapted basis functions of A'  symmetry.
 There are   456 symmetry adapted basis functions of A"  symmetry.
   960 basis functions,  1632 primitive gaussians,  1004 cartesian basis functions
    73 alpha electrons       73 beta electrons
       nuclear repulsion energy      1494.3575060981 Hartrees.
 IExCor=  402 DFT=T Ex+Corr=B3LYP ExCW=0 ScaHFX=  0.200000
 ScaDFX=  0.800000  0.720000  1.000000  0.810000 ScalE2=  1.000000  1.000000
 IRadAn=      5 IRanWt=     -1 IRanGd=            0 ICorTp=0 IEmpDi=131
 NAtoms=   72 NActive=   72 NUniq=   40 SFac= 3.24D+00 NAtFMM=   60 NAOKFM=T Big=F
 Integral buffers will be    131072 words long.
 Raffenetti 2 integral format.
 Two-electron integral symmetry is turned on.
 R6Disp:  Grimme-D3 Dispersion energy=       -0.0303938888 Hartrees.
 Nuclear repulsion after empirical dispersion term =     1494.3271122093 Hartrees.
 No density basis found on file    718.
 Leave Link  301 at Wed Sep 27 16:39:48 2023, MaxMem=  3221225472 cpu:               2.0 elap:               0.1
 (Enter /home/center/opt/aarch64/apps/gaussian16/c01/g16/l302.exe)
 NPDir=0 NMtPBC=     1 NCelOv=     1 NCel=       1 NClECP=     1 NCelD=      1
         NCelK=      1 NCelE2=     1 NClLst=     1 CellRange=     0.0.
 One-electron integrals computed using PRISM.
 One-electron integral symmetry used in STVInt
 NBasis=   960 RedAO= T EigKep=  3.81D-05  NBF=   504   456
 NBsUse=   960 1.00D-06 EigRej= -1.00D+00 NBFU=   504   456
 Precomputing XC quadrature grid using
 IXCGrd= 4 IRadAn=           5 IRanWt=          -1 IRanGd=           0 AccXCQ= 0.00D+00.
 Generated NRdTot=       0 NPtTot=           0 NUsed=           0 NTot=          32
 NSgBfM=   989   989   989   989   989 MxSgAt=    72 MxSgA2=    72.
 Leave Link  302 at Wed Sep 27 16:39:52 2023, MaxMem=  3221225472 cpu:              59.8 elap:               1.6
 (Enter /home/center/opt/aarch64/apps/gaussian16/c01/g16/l303.exe)
 DipDrv:  MaxL=1.
 Leave Link  303 at Wed Sep 27 16:39:55 2023, MaxMem=  3221225472 cpu:              12.5 elap:               0.4
 (Enter /home/center/opt/aarch64/apps/gaussian16/c01/g16/l401.exe)
 ExpMin= 1.03D-01 ExpMax= 4.56D+03 ExpMxC= 6.82D+02 IAcc=3 IRadAn=         5 AccDes= 0.00D+00
 Harris functional with IExCor=  402 and IRadAn=       5 diagonalized for initial guess.
 HarFok:  IExCor=  402 AccDes= 0.00D+00 IRadAn=         5 IDoV= 1 UseB2=F ITyADJ=14
 ICtDFT=  3500011 ScaDFX=  1.000000  1.000000  1.000000  1.000000
 FoFCou: FMM=F IPFlag=           0 FMFlag=      100000 FMFlg1=        2000
         NFxFlg=           0 DoJE=T BraDBF=F KetDBF=T FulRan=T
         wScrn=  0.000000 ICntrl=       500 IOpCl=  0 I1Cent=   200000004 NGrid=           0
         NMat0=    1 NMatS0=      1 NMatT0=    0 NMatD0=    1 NMtDS0=    0 NMtDT0=    0
 Petite list used in FoFCou.
 Harris En= -847.065963494455    
 JPrj=0 DoOrth=F DoCkMO=F.
 Initial guess orbital symmetries:
       Occupied  (A") (A') (A') (A") (A") (A') (A") (A') (A') (A")
                 (A") (A') (A') (A') (A") (A') (A") (A') (A") (A')
                 (A') (A") (A') (A") (A') (A") (A') (A') (A") (A')
                 (A") (A") (A') (A') (A") (A") (A') (A") (A') (A')
                 (A') (A") (A") (A") (A') (A') (A") (A') (A') (A")
                 (A') (A") (A") (A') (A') (A") (A') (A") (A') (A")
                 (A") (A') (A') (A") (A') (A") (A') (A") (A') (A')
                 (A") (A") (A')
       Virtual   (A') (A") (A") (A') (A') (A") (A') (A") (A') (A")
                 (A') (A') (A") (A') (A") (A') (A") (A') (A') (A")
                 (A") (A") (A') (A') (A") (A') (A') (A') (A') (A')
                 (A") (A") (A') (A") (A') (A") (A') (A") (A") (A')
                 (A') (A") (A") (A') (A") (A') (A") (A') (A") (A')
                 (A') (A") (A') (A") (A') (A") (A') (A') (A") (A')
                 (A") (A') (A') (A") (A") (A') (A") (A') (A") (A')
                 (A') (A") (A") (A") (A') (A') (A') (A') (A') (A')
                 (A") (A') (A") (A") (A') (A") (A') (A") (A') (A")
                 (A") (A") (A") (A') (A") (A') (A") (A') (A') (A')
                 (A') (A") (A') (A') (A") (A') (A') (A") (A') (A")
                 (A") (A') (A") (A') (A") (A') (A") (A") (A') (A")
                 (A") (A') (A') (A") (A') (A') (A') (A") (A') (A")
                 (A") (A') (A') (A') (A") (A") (A') (A') (A") (A')
                 (A') (A') (A") (A') (A") (A') (A") (A") (A") (A')
                 (A") (A') (A") (A") (A') (A") (A') (A') (A') (A")
                 (A') (A') (A") (A') (A") (A') (A") (A") (A') (A")
                 (A") (A') (A") (A') (A') (A") (A') (A') (A") (A')
                 (A") (A") (A') (A') (A") (A") (A') (A") (A') (A')
                 (A") (A') (A') (A") (A') (A") (A") (A') (A') (A")
                 (A") (A') (A") (A') (A") (A') (A") (A') (A") (A')
                 (A') (A') (A") (A") (A") (A') (A") (A') (A") (A")
                 (A') (A') (A') (A') (A") (A") (A') (A') (A') (A")
                 (A') (A') (A") (A") (A") (A') (A") (A') (A") (A")
                 (A") (A') (A') (A') (A") (A') (A') (A") (A") (A")
                 (A") (A') (A") (A') (A') (A') (A') (A') (A") (A")
                 (A") (A') (A") (A') (A') (A') (A") (A") (A') (A")
                 (A') (A') (A") (A") (A") (A') (A") (A') (A") (A')
                 (A') (A") (A") (A') (A') (A') (A") (A") (A') (A")
                 (A') (A') (A") (A') (A') (A") (A') (A") (A') (A')
                 (A") (A') (A') (A") (A") (A') (A") (A") (A") (A")
                 (A") (A') (A') (A") (A') (A') (A') (A') (A") (A')
                 (A") (A') (A") (A") (A') (A') (A") (A') (A') (A")
                 (A") (A') (A') (A') (A") (A') (A") (A') (A') (A")
                 (A") (A') (A") (A") (A') (A") (A") (A') (A') (A')
                 (A') (A") (A") (A') (A") (A') (A") (A') (A') (A')
                 (A") (A') (A") (A') (A") (A") (A") (A') (A') (A")
                 (A") (A') (A") (A') (A') (A") (A") (A') (A") (A')
                 (A") (A') (A') (A") (A") (A') (A') (A") (A') (A')
                 (A") (A") (A") (A') (A') (A") (A') (A") (A') (A")
                 (A') (A') (A") (A") (A") (A") (A') (A') (A') (A")
                 (A') (A") (A') (A') (A') (A") (A") (A') (A") (A')
                 (A") (A') (A") (A") (A') (A') (A") (A") (A') (A")
                 (A") (A') (A') (A') (A') (A') (A") (A") (A") (A')
                 (A") (A') (A') (A") (A') (A') (A") (A") (A") (A")
                 (A') (A') (A') (A') (A') (A") (A') (A") (A") (A")
                 (A") (A') (A') (A") (A') (A") (A") (A') (A') (A')
                 (A') (A") (A") (A") (A') (A") (A") (A') (A') (A")
                 (A') (A") (A") (A') (A") (A') (A') (A") (A") (A')
                 (A") (A') (A') (A") (A') (A") (A') (A") (A') (A")
                 (A') (A") (A') (A") (A') (A") (A') (A") (A') (A")
                 (A') (A') (A") (A") (A') (A") (A") (A') (A') (A')
                 (A") (A') (A") (A") (A') (A") (A') (A') (A") (A')
                 (A') (A") (A') (A") (A') (A") (A') (A') (A") (A')
                 (A") (A") (A') (A') (A') (A") (A') (A") (A") (A')
                 (A") (A") (A') (A') (A") (A') (A") (A') (A') (A")
                 (A') (A") (A') (A") (A') (A") (A") (A") (A') (A")
                 (A') (A') (A') (A') (A") (A') (A') (A") (A') (A")
                 (A") (A') (A") (A") (A') (A') (A") (A") (A") (A')
                 (A') (A") (A') (A') (A') (A") (A') (A") (A') (A")
                 (A') (A") (A") (A") (A') (A') (A") (A') (A") (A')
                 (A") (A') (A') (A") (A') (A") (A') (A") (A') (A")
                 (A') (A') (A") (A") (A') (A") (A") (A') (A') (A")
                 (A") (A') (A") (A") (A") (A') (A') (A') (A') (A')
                 (A") (A") (A') (A") (A') (A') (A") (A") (A') (A")
                 (A') (A") (A') (A") (A') (A") (A") (A') (A") (A')
                 (A") (A') (A') (A") (A") (A') (A") (A") (A') (A')
                 (A') (A") (A") (A') (A') (A") (A') (A") (A') (A')
                 (A") (A') (A") (A') (A") (A') (A") (A') (A') (A")
                 (A') (A") (A') (A') (A") (A") (A') (A") (A') (A')
                 (A") (A") (A') (A") (A') (A") (A') (A') (A") (A')
                 (A") (A') (A") (A') (A") (A') (A') (A") (A') (A')
                 (A") (A") (A') (A") (A") (A') (A') (A') (A') (A")
                 (A") (A") (A') (A") (A') (A") (A') (A") (A") (A')
                 (A") (A') (A") (A') (A") (A') (A') (A") (A") (A')
                 (A') (A") (A') (A') (A") (A') (A") (A') (A") (A')
                 (A") (A') (A') (A") (A") (A') (A') (A') (A") (A")
                 (A") (A') (A') (A") (A') (A') (A") (A') (A") (A')
                 (A") (A') (A') (A") (A") (A") (A') (A") (A') (A')
                 (A") (A") (A') (A") (A') (A") (A') (A') (A') (A")
                 (A") (A') (A") (A') (A") (A') (A") (A') (A') (A")
                 (A") (A') (A') (A") (A') (A") (A") (A') (A") (A')
[...]
                 (A') (A') (A") (A") (A') (A") (A') (A") (A') (A')
                 (A") (A") (A')
       Virtual   (A') (A") (A") (A') (A') (A") (A') (A') (A') (A")
                 (A") (A') (A") (A') (A") (A') (A") (A") (A') (A")
                 (A') (A') (A") (A') (A") (A') (A') (A') (A') (A")
                 (A") (A") (A") (A') (A') (A") (A') (A") (A') (A")
                 (A') (A') (A') (A") (A') (A") (A") (A') (A') (A")
                 (A") (A') (A') (A") (A') (A") (A") (A") (A') (A")
                 (A') (A') (A') (A') (A') (A") (A') (A') (A") (A")
                 (A") (A') (A') (A') (A") (A') (A") (A") (A") (A')
                 (A') (A") (A') (A") (A") (A') (A") (A') (A') (A')
                 (A') (A') (A") (A") (A") (A") (A') (A") (A') (A")
                 (A') (A') (A') (A") (A") (A') (A') (A") (A') (A")
                 (A') (A") (A") (A") (A') (A') (A") (A') (A') (A")
                 (A') (A") (A") (A') (A') (A") (A') (A") (A') (A")
                 (A") (A') (A') (A') (A') (A") (A") (A") (A') (A")
                 (A') (A") (A') (A") (A') (A') (A") (A") (A') (A")
                 (A') (A") (A') (A") (A') (A') (A") (A') (A") (A")
                 (A') (A") (A') (A') (A") (A") (A') (A") (A') (A")
                 (A') (A') (A") (A') (A') (A") (A") (A') (A') (A')
                 (A") (A') (A") (A") (A") (A") (A') (A") (A') (A')
                 (A") (A') (A") (A') (A') (A') (A") (A') (A") (A')
                 (A") (A") (A') (A') (A") (A") (A') (A') (A") (A')
                 (A') (A') (A') (A") (A") (A") (A") (A') (A') (A")
                 (A') (A") (A") (A') (A") (A') (A") (A') (A") (A')
                 (A") (A') (A') (A") (A') (A") (A") (A') (A') (A")
                 (A") (A') (A') (A") (A") (A') (A") (A") (A") (A')
                 (A') (A") (A') (A') (A") (A') (A') (A") (A') (A")
                 (A") (A') (A") (A') (A') (A") (A") (A") (A') (A')
                 (A") (A') (A') (A") (A") (A") (A') (A") (A') (A')
                 (A") (A') (A") (A') (A") (A') (A') (A') (A") (A')
                 (A") (A") (A') (A') (A") (A") (A') (A") (A') (A")
                 (A') (A') (A") (A") (A') (A') (A") (A') (A') (A')
                 (A") (A") (A') (A") (A') (A") (A') (A") (A') (A')
                 (A') (A") (A") (A") (A') (A") (A') (A') (A') (A")
                 (A") (A') (A") (A') (A') (A") (A') (A") (A") (A')
                 (A') (A") (A') (A") (A") (A') (A') (A") (A') (A")
                 (A') (A") (A') (A") (A') (A") (A") (A') (A') (A")
                 (A') (A") (A') (A') (A") (A") (A') (A") (A') (A')
                 (A") (A') (A") (A') (A') (A") (A') (A") (A') (A")
                 (A") (A') (A") (A') (A") (A') (A") (A') (A') (A")
                 (A") (A') (A") (A') (A') (A") (A") (A') (A') (A")
                 (A') (A") (A') (A") (A') (A') (A")
 The electronic state is 1-A'.
 Alpha  occ. eigenvalues --  -10.18931 -10.18930 -10.18896 -10.18895 -10.18848
 Alpha  occ. eigenvalues --  -10.18848 -10.18813 -10.18813 -10.17956 -10.17955
 Alpha  occ. eigenvalues --  -10.17920 -10.17920 -10.17919 -10.17919 -10.17875
 Alpha  occ. eigenvalues --  -10.17875 -10.17863 -10.17863 -10.17808 -10.17808
 Alpha  occ. eigenvalues --  -10.17781 -10.17781  -0.89340  -0.87865  -0.85549
 Alpha  occ. eigenvalues --   -0.82415  -0.79820  -0.78521  -0.78314  -0.75991
 Alpha  occ. eigenvalues --   -0.74255  -0.72901  -0.69196  -0.67344  -0.62728
 Alpha  occ. eigenvalues --   -0.62370  -0.61108  -0.59964  -0.59301  -0.57689
 Alpha  occ. eigenvalues --   -0.52709  -0.52573  -0.52293  -0.49654  -0.48513
 Alpha  occ. eigenvalues --   -0.47160  -0.46110  -0.45590  -0.45476  -0.43928
 Alpha  occ. eigenvalues --   -0.43182  -0.42578  -0.41808  -0.41572  -0.41386
 Alpha  occ. eigenvalues --   -0.40692  -0.40405  -0.39579  -0.38193  -0.36732
 Alpha  occ. eigenvalues --   -0.36341  -0.35550  -0.34094  -0.33809  -0.33058
 Alpha  occ. eigenvalues --   -0.32930  -0.31612  -0.29665  -0.28406  -0.26623
 Alpha  occ. eigenvalues --   -0.24364  -0.22582  -0.17855
 Alpha virt. eigenvalues --   -0.09755  -0.04464  -0.02747  -0.00147   0.02073
 Alpha virt. eigenvalues --    0.02370   0.03189   0.04746   0.04859   0.04871
 Alpha virt. eigenvalues --    0.06161   0.06575   0.07968   0.08162   0.08303
 Alpha virt. eigenvalues --    0.09607   0.10049   0.11524   0.11533   0.13796
 Alpha virt. eigenvalues --    0.14111   0.14670   0.18092   0.18194   0.18832
 Alpha virt. eigenvalues --    0.19391   0.22815   0.23002   0.24379   0.24942
 Alpha virt. eigenvalues --    0.25581   0.27528   0.27575   0.28012   0.28228
 Alpha virt. eigenvalues --    0.28947   0.29389   0.30158   0.30759   0.31175
 Alpha virt. eigenvalues --    0.32897   0.34528   0.36420   0.36484   0.37134
 Alpha virt. eigenvalues --    0.37503   0.37629   0.37651   0.38116   0.38643
 Alpha virt. eigenvalues --    0.39094   0.39439   0.39739   0.40236   0.40435
 Alpha virt. eigenvalues --    0.41918   0.41926   0.41940   0.42289   0.42318
 Alpha virt. eigenvalues --    0.42643   0.43748   0.44233   0.44835   0.45295
 Alpha virt. eigenvalues --    0.45683   0.45924   0.45953   0.46379   0.47165
 Alpha virt. eigenvalues --    0.47805   0.47809   0.47978   0.48073   0.48231
 Alpha virt. eigenvalues --    0.48568   0.49414   0.49572   0.51377   0.51846
 Alpha virt. eigenvalues --    0.52370   0.53118   0.53671   0.55998   0.57923
 Alpha virt. eigenvalues --    0.57955   0.59048   0.59201   0.60433   0.60585
 Alpha virt. eigenvalues --    0.60693   0.61101   0.61690   0.62105   0.62173
 Alpha virt. eigenvalues --    0.63432   0.63481   0.64458   0.64535   0.65533
 Alpha virt. eigenvalues --    0.66693   0.66910   0.67680   0.67724   0.70658
 Alpha virt. eigenvalues --    0.71305   0.71405   0.71494   0.72803   0.73989
 Alpha virt. eigenvalues --    0.75405   0.75894   0.76289   0.77801   0.77809
 Alpha virt. eigenvalues --    0.78943   0.79160   0.79723   0.81162   0.81509
 Alpha virt. eigenvalues --    0.82881   0.83001   0.84383   0.84585   0.84713
 Alpha virt. eigenvalues --    0.88087   0.89711   0.89765   0.91536   0.92083
 Alpha virt. eigenvalues --    0.92578   0.93749   0.95806   0.96107   0.96442
 Alpha virt. eigenvalues --    0.96590   0.96905   0.98547   1.00356   1.01118
 Alpha virt. eigenvalues --    1.02686   1.03027   1.03354   1.04405   1.05244
 Alpha virt. eigenvalues --    1.05439   1.05525   1.05950   1.07395   1.07547
 Alpha virt. eigenvalues --    1.07686   1.08438   1.10005   1.10036   1.12070
 Alpha virt. eigenvalues --    1.13223   1.13544   1.13650   1.14526   1.15341
 Alpha virt. eigenvalues --    1.17432   1.18332   1.19657   1.20432   1.23014
 Alpha virt. eigenvalues --    1.23618   1.27884   1.28234   1.30579   1.32076
 Alpha virt. eigenvalues --    1.32743   1.34942   1.37641   1.39236   1.39896
 Alpha virt. eigenvalues --    1.39942   1.40725   1.42751   1.43476   1.43554
 Alpha virt. eigenvalues --    1.45057   1.46086   1.47119   1.47538   1.48841
 Alpha virt. eigenvalues --    1.49280   1.49417   1.50258   1.50674   1.52268
 Alpha virt. eigenvalues --    1.52650   1.53402   1.54331   1.54372   1.54781
 Alpha virt. eigenvalues --    1.54807   1.57107   1.57715   1.58569   1.59882
 Alpha virt. eigenvalues --    1.60106   1.62692   1.63242   1.64856   1.66641
 Alpha virt. eigenvalues --    1.69292   1.69605   1.69709   1.70649   1.71804
 Alpha virt. eigenvalues --    1.72459   1.72619   1.73075   1.73096   1.73680
 Alpha virt. eigenvalues --    1.77494   1.78519   1.79157   1.79419   1.80511
 Alpha virt. eigenvalues --    1.81616   1.81887   1.82058   1.83581   1.84039
 Alpha virt. eigenvalues --    1.85487   1.87392   1.87456   1.87577   1.87728
 Alpha virt. eigenvalues --    1.88131   1.88613   1.90743   1.91387   1.92190
 Alpha virt. eigenvalues --    1.92193   1.92572   1.92670   1.93517   1.93938
 Alpha virt. eigenvalues --    1.94544   1.95483   1.97262   1.99429   2.00088
 Alpha virt. eigenvalues --    2.00602   2.01362   2.03019   2.05757   2.08293
 Alpha virt. eigenvalues --    2.09111   2.09256   2.09792   2.12192   2.14098
 Alpha virt. eigenvalues --    2.15528   2.15584   2.17200   2.19751   2.20833
 Alpha virt. eigenvalues --    2.21576   2.22525   2.23381   2.24503   2.26441
 Alpha virt. eigenvalues --    2.26972   2.27242   2.27719   2.28046   2.29391
 Alpha virt. eigenvalues --    2.33301   2.35725   2.39155   2.39384   2.40817
 Alpha virt. eigenvalues --    2.42649   2.43076   2.45776   2.45994   2.46870
 Alpha virt. eigenvalues --    2.51623   2.51954   2.53354   2.53485   2.55138
 Alpha virt. eigenvalues --    2.56159   2.58701   2.58838   2.59764   2.59776
 Alpha virt. eigenvalues --    2.60682   2.61147   2.61719   2.62222   2.63349
 Alpha virt. eigenvalues --    2.63999   2.64478   2.66054   2.66794   2.67121
 Alpha virt. eigenvalues --    2.67374   2.68356   2.68872   2.68876   2.69372
 Alpha virt. eigenvalues --    2.69557   2.69907   2.70083   2.70281   2.73482
 Alpha virt. eigenvalues --    2.74771   2.74836   2.76066   2.77101   2.77577
 Alpha virt. eigenvalues --    2.78232   2.78455   2.78850   2.80822   2.82359
 Alpha virt. eigenvalues --    2.85535   2.85993   2.86737   2.87294   2.90966
 Alpha virt. eigenvalues --    2.91783   2.92195   2.93676   2.95232   2.95887
 Alpha virt. eigenvalues --    2.99270   2.99858   3.03165   3.05604   3.06852
 Alpha virt. eigenvalues --    3.07371   3.15988   3.16029   3.16647   3.19843
 Alpha virt. eigenvalues --    3.20017   3.23601   3.29134   3.29680   3.31610
 Alpha virt. eigenvalues --    3.35095   3.35458   3.35677   3.35858   3.38023
 Alpha virt. eigenvalues --    3.39887   3.41413   3.44960   3.45362   3.47993
 Alpha virt. eigenvalues --    3.48278   3.50401   3.53073   3.57439   3.58649
 Alpha virt. eigenvalues --    3.61466   3.62620   3.63208   3.63698   3.65910
 Alpha virt. eigenvalues --    3.67534   3.67678   4.00384   4.00442   4.01859
 Alpha virt. eigenvalues --    4.02182   4.16133   4.16678   4.17360   4.21240
 Alpha virt. eigenvalues --    4.22396   4.22517   4.25488   4.38492   4.62290
 Alpha virt. eigenvalues --    4.79179   4.79740   4.80562   4.82562   4.83014
 Alpha virt. eigenvalues --   23.39176  23.54541  23.69085  23.77378  23.80419
 Alpha virt. eigenvalues --   23.81537  23.86099  23.89067  23.89154  23.92210
 Alpha virt. eigenvalues --   23.97563  23.98365  24.09049  24.09932  24.10529
 Alpha virt. eigenvalues --   24.12220  24.13779  24.14375  24.15775  24.15810
 Alpha virt. eigenvalues --   24.20452  24.20497
          Condensed to atoms (all electrons):
 Mulliken charges:
               1
     1  C    0.000000
     2  C    0.000000
     3  C    0.000000
     4  C    0.000000
     5  C    0.000000
     6  C    0.000000
     7  C    0.000000
     8  C    0.000000
     9  C    0.000000
    10  C    0.000000
    11  H    0.000000
    12  H    0.000000
    13  H    0.000000
    14  H    0.000000
    15  H    0.000000
    16  H    0.000000
    17  C    0.000000
    18  C    0.000000
    19  C    0.000000
    20  C    0.000000
    21  H    0.000000
    22  H    0.000000
    23  C    0.000000
    24  C    0.000000
    25  C    0.000000
    26  C    0.000000
    27  H    0.000000
    28  H    0.000000
    29  C    0.000000
    30  C    0.000000
    31  C    0.000000
    32  C    0.000000
    33  H    0.000000
    34  H    0.000000
    35  H    0.000000
    36  H    0.000000
    37  C   -0.059168
    38  C   -0.059168
    39  C   -0.055977
    40  C   -0.055977
    41  C   -0.092198
    42  C   -0.092198
    43  C   -0.016525
    44  C   -0.054498
    45  C   -0.016525
    46  C   -0.054498
    47  H    0.082122
    48  H    0.074853
    49  H    0.074853
    50  H    0.082122
    51  H    0.094847
    52  H    0.094847
    53  C   -0.020341
    54  C   -0.054498
    55  C   -0.020341
    56  C   -0.054498
    57  H    0.073428
    58  H    0.073428
    59  C   -0.016525
    60  C   -0.059168
    61  C   -0.016525
    62  C   -0.059168
    63  H    0.074853
    64  H    0.074853
    65  C   -0.055977
    66  C   -0.092198
    67  C   -0.055977
    68  C   -0.092198
    69  H    0.082122
    70  H    0.094847
    71  H    0.094847
    72  H    0.082122
 Sum of Mulliken charges =   0.00000
 Mulliken charges with hydrogens summed into heavy atoms:
               1
     1  C    0.000000
     2  C    0.000000
     3  C    0.000000
     4  C    0.000000
     5  C    0.000000
     6  C    0.000000
     7  C    0.000000
     8  C    0.000000
     9  C    0.000000
    10  C    0.000000
    17  C    0.000000
    18  C    0.000000
    19  C    0.000000
    20  C    0.000000
    23  C    0.000000
    24  C    0.000000
    25  C    0.000000
    26  C    0.000000
    29  C    0.000000
    30  C    0.000000
    31  C    0.000000
    32  C    0.000000
    37  C   -0.059168
    38  C   -0.059168
    39  C    0.026144
    40  C    0.026144
    41  C    0.002649
    42  C    0.002649
    43  C    0.058328
    44  C   -0.054498
    45  C    0.058328
    46  C   -0.054498
    53  C    0.053087
    54  C   -0.054498
    55  C    0.053087
    56  C   -0.054498
    59  C    0.058328
    60  C   -0.059168
    61  C    0.058328
    62  C   -0.059168
    65  C    0.026144
    66  C    0.002649
    67  C    0.026144
    68  C    0.002649
         Mulliken charges condensed to fragments:
      1      0.000000
      2      0.000000
 Electronic spatial extent (au):  <R**2>=          13990.5645
 Charge=              0.0000 electrons
 Dipole moment (field-independent basis, Debye):
    X=              0.0000    Y=              0.0000    Z=              0.0000  Tot=              0.0000
 Quadrupole moment (field-independent basis, Debye-Ang):
   XX=           -136.3921   YY=           -110.7480   ZZ=           -109.0115
   XY=              0.0000   XZ=              0.0000   YZ=              0.0000
 Traceless Quadrupole moment (field-independent basis, Debye-Ang):
   XX=            -17.6749   YY=              7.9692   ZZ=              9.7057
   XY=              0.0000   XZ=              0.0000   YZ=              0.0000
 Octapole moment (field-independent basis, Debye-Ang**2):
  XXX=            867.9938  YYY=            704.7961  ZZZ=              0.0000  XYY=            234.9321
  XXY=            289.3312  XXZ=              0.0000  XZZ=            231.2483  YZZ=            231.2483
  YYZ=              0.0000  XYZ=              0.0000
 Hexadecapole moment (field-independent basis, Debye-Ang**3):
 XXXX=          -3836.9895 YYYY=          -4106.9137 ZZZZ=         -10461.4324 XXXY=          -1841.2928
 XXXZ=              0.0000 YYYX=          -1495.0984 YYYZ=              0.0000 ZZZX=              0.0000
 ZZZY=              0.0000 XXYY=          -1368.5457 XXZZ=          -2698.4836 YYZZ=          -2459.7660
 XXYZ=              0.0000 YYXZ=              0.0000 ZZXY=           -490.5516
 N-N= 1.494327112306D+03 E-N=-4.953709176171D+03  KE= 8.433374905155D+02
 Symmetry A'   KE= 4.567052305476D+02
 Symmetry A"   KE= 3.866322599679D+02
 No NMR shielding tensors so no spin-rotation constants.
 Leave Link  601 at Wed Sep 27 16:56:34 2023, MaxMem=  3221225472 cpu:              20.9 elap:               0.6
 (Enter /home/center/opt/aarch64/apps/gaussian16/c01/g16/l122.exe)
 CPIOFr:  IOpCl= 0 IRwI=-1 IRwCP=  731 ICalc=  4 LCPTot=     1419224 Len1MO=     3708034 IndFrg=    19959394
 Restoring MOs from calculation   1 to rwf.
 CPIOFr:  IOpCl= 0 IRwI=-2 IRwCP=  731 ICalc=  0 LCPTot=     1419224 Len1MO=     3708034 IndFrg=     5127258
 Counterpoise corrected energy =   -1694.047361927797
                   BSSE energy =       0.001174299900
              sum of fragments =   -1694.039683044260
           complexation energy =      -5.56 kcal/mole (raw)
           complexation energy =      -4.82 kcal/mole (corrected)
 Leave Link  122 at Wed Sep 27 16:56:37 2023, MaxMem=  3221225472 cpu:               8.7 elap:               0.4
 (Enter /home/center/opt/aarch64/apps/gaussian16/c01/g16/l9999.exe)

 Test job not archived.
 1\1\GINC-FX0508\SP\RB3LYP\6-311G(d,p)\C44H28\Z40145W\27-Sep-2023\0\\#P
  TEST b3lyp/6-311G** EmpiricalDispersion=GD3 counterpoise=2\\pentacene
 _A1=0_A2=0_A3=45_p2\\0,1\C,0,-0.5039478476,0.5239478476,-3.6612755801\
 C,0,0.5239480325,-0.5039480325,-3.6612755629\C,0,-0.9861248463,1.00612
 48463,-4.9235927708\C,0,1.0061250889,-0.9861250889,-4.9235926697\C,0,-
 0.4963213507,0.5163213507,-6.096356521\C,0,0.5163216812,-0.4963216812,
 -6.0963564796\C,0,-0.9844684311,1.0044684311,-2.4533174875\C,0,-0.5044
 88426,0.524488426,-1.2140288145\C,0,1.0044685359,-0.9844685359,-2.4533
 173917\C,0,0.5244885437,-0.5044885437,-1.2140288362\H,0,-1.7533559667,
 1.7733559667,-4.9232600459\H,0,-1.7521866813,1.7721866813,-2.453928581
 5\H,0,1.7721859268,-1.7521859268,-2.4539284818\H,0,1.7733558421,-1.753
 3558421,-4.9232597785\H,0,0.8905568758,-0.8705568758,-7.0425276922\H,0
 ,-0.8705565046,0.8905565046,-7.042527775\C,0,-0.9848184961,1.004818496
 1,0.0099998782\C,0,-0.5044883957,0.5244883957,1.2340295553\C,0,1.00481
 85643,-0.9848185643,0.0099998696\C,0,0.5244885146,-0.5044885146,1.2340
 295261\H,0,-1.7524699697,1.7724699697,0.0099999205\H,0,1.772468921,-1.
 752468921,0.0099999641\C,0,-0.9844683048,1.0044683048,2.4733171385\C,0
 ,-0.5039477114,0.5239477114,3.681276331\C,0,1.0044684211,-0.9844684211
 ,2.4733170835\C,0,0.5239479079,-0.5039479079,3.6812763217\H,0,-1.75218
 65527,1.7721865527,2.4739285326\H,0,1.7721858092,-1.7521858092,2.47392
 83796\C,0,-0.9861245177,1.0061245177,4.9435920588\C,0,-0.4963209372,0.
 5163209372,6.116356633\C,0,1.0061247659,-0.9861247659,4.9435919377\C,0
 ,0.5163212637,-0.4963212637,6.1163566075\H,0,-1.7533556504,1.773355650
 4,4.9432601504\H,0,-0.8705567426,0.8905567426,7.0625274368\H,0,0.89055
 70967,-0.8705570967,7.0625272142\H,0,1.7733555414,-1.7533555414,4.9432
 599297\C,0,5.4960521524,0.5239478476,-3.6612755801\C,0,6.5239480325,-0
 .5039480325,-3.6612755629\C,0,5.0138751537,1.0061248463,-4.9235927708\
 C,0,7.0061250889,-0.9861250889,-4.9235926697\C,0,5.5036786493,0.516321
 3507,-6.096356521\C,0,6.5163216812,-0.4963216812,-6.0963564796\C,0,5.0
 155315689,1.0044684311,-2.4533174875\C,0,5.495511574,0.524488426,-1.21
 40288145\C,0,7.0044685359,-0.9844685359,-2.4533173917\C,0,6.5244885437
 ,-0.5044885437,-1.2140288362\H,0,4.2466440333,1.7733559667,-4.92326004
 59\H,0,4.2478133187,1.7721866813,-2.4539285815\H,0,7.7721859268,-1.752
 1859268,-2.4539284818\H,0,7.7733558421,-1.7533558421,-4.9232597785\H,0
 ,6.8905568758,-0.8705568758,-7.0425276922\H,0,5.1294434954,0.890556504
 6,-7.042527775\C,0,5.0151815039,1.0048184961,0.0099998782\C,0,5.495511
 6043,0.5244883957,1.2340295553\C,0,7.0048185643,-0.9848185643,0.009999
 8696\C,0,6.5244885146,-0.5044885146,1.2340295261\H,0,4.2475300303,1.77
 24699697,0.0099999205\H,0,7.772468921,-1.752468921,0.0099999641\C,0,5.
 0155316952,1.0044683048,2.4733171385\C,0,5.4960522886,0.5239477114,3.6
 81276331\C,0,7.0044684211,-0.9844684211,2.4733170835\C,0,6.5239479079,
 -0.5039479079,3.6812763217\H,0,4.2478134473,1.7721865527,2.4739285326\
 H,0,7.7721858092,-1.7521858092,2.4739283796\C,0,5.0138754823,1.0061245
 177,4.9435920588\C,0,5.5036790628,0.5163209372,6.116356633\C,0,7.00612
 47659,-0.9861247659,4.9435919377\C,0,6.5163212637,-0.4963212637,6.1163
 566075\H,0,4.2466443496,1.7733556504,4.9432601504\H,0,5.1294432574,0.8
 905567426,7.0625274368\H,0,6.8905570967,-0.8705570967,7.0625272142\H,0
 ,7.7733555414,-1.7533555414,4.9432599297\\Version=Fujitsu-Arm-G16RevC.
 01\State=1-A'\HF=-847.0198415\RMSD=3.181e-09\Dipole=-0.0000009,0.00000
 1,0.\Quadrupole=-8.4265604,-5.7982869,14.2248473,-17.8012403,0.,0.\PG=
 CS [SG(C4H4),X(C40H24)]\\@


 Age does not diminish the extreme disappointment of
 having a scoop of ice cream fall from the cone.
 -- Jim Fiebig
 Job cpu time:       0 days  3 hours 14 minutes 21.6 seconds.
 Elapsed time:       0 days  0 hours  5 minutes  4.2 seconds.
 File lengths (MBytes):  RWF=    718 Int=      0 D2E=      0 Chk=    208 Scr=      1
 Normal termination of Gaussian 16 at Wed Sep 27 16:56:43 2023.
