 Entering Gaussian System, Link 0=g16
 Initial command:
 /home/center/opt/aarch64/apps/gaussian16/c01/g16/l1.exe "/data/tmp/Gtmp/1006925/Gau-50.inp" -scrdir="/data/tmp/Gtmp/1006925/"
 Entering Link 1 = /home/center/opt/aarch64/apps/gaussian16/c01/g16/l1.exe PID=        51.
  
 Copyright (c) 1988-2019, Gaussian, Inc.  All Rights Reserved.
  
 This is part of the Gaussian(R) 16 program.  It is based on
 the Gaussian(R) 09 system (copyright 2009, Gaussian, Inc.),
 the Gaussian(R) 03 system (copyright 2003, Gaussian, Inc.),
 the Gaussian(R) 98 system (copyright 1998, Gaussian, Inc.),
 the Gaussian(R) 94 system (copyright 1995, Gaussian, Inc.),
 the Gaussian 92(TM) system (copyright 1992, Gaussian, Inc.),
 the Gaussian 90(TM) system (copyright 1990, Gaussian, Inc.),
 the Gaussian 88(TM) system (copyright 1988, Gaussian, Inc.),
 the Gaussian 86(TM) system (copyright 1986, Carnegie Mellon
 University), and the Gaussian 82(TM) system (copyright 1983,
 Carnegie Mellon University). Gaussian is a federally registered
 trademark of Gaussian, Inc.
  
 This software contains proprietary and confidential information,
 including trade secrets, belonging to Gaussian, Inc.
  
 This software is provided under written license and may be
 used, copied, transmitted, or stored only in accord with that
 written license.
  
 The following legend is applicable only to US Government
 contracts under FAR:
  
                    RESTRICTED RIGHTS LEGEND
  
 Use, reproduction and disclosure by the US Government is
 subject to restrictions as set forth in subparagraphs (a)
 and (c) of the Commercial Computer Software - Restricted
 Rights clause in FAR 52.227-19.
  
 Gaussian, Inc.
 340 Quinnipiac St., Bldg. 40, Wallingford CT 06492
  
  
 ---------------------------------------------------------------
 Warning -- This program may not be used in any manner that
 competes with the business of Gaussian, Inc. or will provide
 assistance to any competitor of Gaussian, Inc.  The licensee
 of this program is prohibited from giving any competitor of
 Gaussian, Inc. access to this program.  By using this program,
 the user acknowledges that Gaussian, Inc. is engaged in the
 business of creating and licensing software in the field of
 computational chemistry and represents and warrants to the
 licensee that it is not a competitor of Gaussian, Inc. and that
 it will not use this program in any manner prohibited above.
 ---------------------------------------------------------------
  

 Cite this work as:
 Gaussian 16, Revision C.01,
 M. J. Frisch, G. W. Trucks, H. B. Schlegel, G. E. Scuseria, 
 M. A. Robb, J. R. Cheeseman, G. Scalmani, V. Barone, 
 G. A. Petersson, H. Nakatsuji, X. Li, M. Caricato, A. V. Marenich, 
 J. Bloino, B. G. Janesko, R. Gomperts, B. Mennucci, H. P. Hratchian, 
 J. V. Ortiz, A. F. Izmaylov, J. L. Sonnenberg, D. Williams-Young, 
 F. Ding, F. Lipparini, F. Egidi, J. Goings, B. Peng, A. Petrone, 
 T. Henderson, D. Ranasinghe, V. G. Zakrzewski, J. Gao, N. Rega, 
 G. Zheng, W. Liang, M. Hada, M. Ehara, K. Toyota, R. Fukuda, 
 J. Hasegawa, M. Ishida, T. Nakajima, Y. Honda, O. Kitao, H. Nakai, 
 T. Vreven, K. Throssell, J. A. Montgomery, Jr., J. E. Peralta, 
 F. Ogliaro, M. J. Bearpark, J. J. Heyd, E. N. Brothers, K. N. Kudin, 
 V. N. Staroverov, T. A. Keith, R. Kobayashi, J. Normand, 
 K. Raghavachari, A. P. Rendell, J. C. Burant, S. S. Iyengar, 
 J. Tomasi, M. Cossi, J. M. Millam, M. Klene, C. Adamo, R. Cammi, 
 J. W. Ochterski, R. L. Martin, K. Morokuma, O. Farkas, 
 J. B. Foresman, and D. J. Fox, Gaussian, Inc., Wallingford CT, 2019.
 
 ************************************************
 Gaussian 16:  Fujitsu-Arm-G16RevC.01  3-Jul-2019
                   27-Sep-2023 
 ************************************************
 %mem=24GB
 %nproc=42
 Will use up to   42 processors via shared memory.
 -------------------------------------------------------------
 #P TEST b3lyp/6-311G** EmpiricalDispersion=GD3 counterpoise=2
 -------------------------------------------------------------
 1/38=1,62=2,172=1/1;
 2/12=2,17=6,18=5,40=1/2;
 1/38=1,53=2,62=2,63=1/22;
 3/5=4,6=6,7=101,11=2,25=1,30=1,74=-5,124=31/1,2,3;
 4//1;
 5/5=2,38=5/2;
 6/7=2,8=2,9=2,10=2,28=1/1;
 1/53=2,62=2,63=1/22;
 3/5=7,6=11,7=101,11=2,25=1,30=1,74=-5,82=7,124=31/1,2,3;
 4//1;
 5/5=2,38=5/2;
 6/7=2,8=2,9=2,10=2,28=1/1;
 1/53=2,62=2,63=1/22(-4);
 99/5=1,9=1/99;
 Leave Link    1 at Wed Sep 27 16:37:37 2023, MaxMem=  3221225472 cpu:               6.0 elap:               0.2
 (Enter /home/center/opt/aarch64/apps/gaussian16/c01/g16/l101.exe)
 ----------------------------
 pentacene_A1=0_A2=0_A3=45_t1
 ----------------------------
 Symbolic Z-matrix:
 Charge =  0 Multiplicity = 1 in supermolecule
 Charge =  0 Multiplicity = 1 in fragment      1.
 Charge =  0 Multiplicity = 1 in fragment      2.
 C(Fragment=1)        -0.50395   0.52395  -3.66128 
 C(Fragment=1)         0.52395  -0.50395  -3.66128 
 C(Fragment=1)        -0.98612   1.00612  -4.92359 
 C(Fragment=1)         1.00613  -0.98613  -4.92359 
 C(Fragment=1)        -0.49632   0.51632  -6.09636 
 C(Fragment=1)         0.51632  -0.49632  -6.09636 
 C(Fragment=1)        -0.98447   1.00447  -2.45332 
 C(Fragment=1)        -0.50449   0.52449  -1.21403 
 C(Fragment=1)         1.00447  -0.98447  -2.45332 
 C(Fragment=1)         0.52449  -0.50449  -1.21403 
 H(Fragment=1)        -1.75336   1.77336  -4.92326 
 H(Fragment=1)        -1.75219   1.77219  -2.45393 
 H(Fragment=1)         1.77219  -1.75219  -2.45393 
 H(Fragment=1)         1.77336  -1.75336  -4.92326 
 H(Fragment=1)         0.89056  -0.87056  -7.04253 
 H(Fragment=1)        -0.87056   0.89056  -7.04253 
 C(Fragment=1)        -0.98482   1.00482   0.01 
 C(Fragment=1)        -0.50449   0.52449   1.23403 
 C(Fragment=1)         1.00482  -0.98482   0.01 
 C(Fragment=1)         0.52449  -0.50449   1.23403 
 H(Fragment=1)        -1.75247   1.77247   0.01 
 H(Fragment=1)         1.77247  -1.75247   0.01 
 C(Fragment=1)        -0.98447   1.00447   2.47332 
 C(Fragment=1)        -0.50395   0.52395   3.68128 
 C(Fragment=1)         1.00447  -0.98447   2.47332 
 C(Fragment=1)         0.52395  -0.50395   3.68128 
 H(Fragment=1)        -1.75219   1.77219   2.47393 
 H(Fragment=1)         1.77219  -1.75219   2.47393 
 C(Fragment=1)        -0.98612   1.00612   4.94359 
 C(Fragment=1)        -0.49632   0.51632   6.11636 
 C(Fragment=1)         1.00612  -0.98612   4.94359 
 C(Fragment=1)         0.51632  -0.49632   6.11636 
 H(Fragment=1)        -1.75336   1.77336   4.94326 
 H(Fragment=1)        -0.87056   0.89056   7.06253 
 H(Fragment=1)         0.89056  -0.87056   7.06253 
 H(Fragment=1)         1.77336  -1.75336   4.94326 
 C(Fragment=2)         2.77395   6.27395  -3.66128 
 C(Fragment=2)         1.74605   5.24605  -3.66128 
 C(Fragment=2)         3.25612   6.75612  -4.92359 
 C(Fragment=2)         1.26387   4.76387  -4.92359 
 C(Fragment=2)         2.76632   6.26632  -6.09636 
 C(Fragment=2)         1.75368   5.25368  -6.09636 
 C(Fragment=2)         3.25447   6.75447  -2.45332 
 C(Fragment=2)         2.77449   6.27449  -1.21403 
 C(Fragment=2)         1.26553   4.76553  -2.45332 
 C(Fragment=2)         1.74551   5.24551  -1.21403 
 H(Fragment=2)         4.02336   7.52336  -4.92326 
 H(Fragment=2)         4.02219   7.52219  -2.45393 
 H(Fragment=2)         0.49781   3.99781  -2.45393 
 H(Fragment=2)         0.49664   3.99664  -4.92326 
 H(Fragment=2)         1.37944   4.87944  -7.04253 
 H(Fragment=2)         3.14056   6.64056  -7.04253 
 C(Fragment=2)         3.25482   6.75482   0.01 
 C(Fragment=2)         2.77449   6.27449   1.23403 
 C(Fragment=2)         1.26518   4.76518   0.01 
 C(Fragment=2)         1.74551   5.24551   1.23403 
 H(Fragment=2)         4.02247   7.52247   0.01 
 H(Fragment=2)         0.49753   3.99753   0.01 
 C(Fragment=2)         3.25447   6.75447   2.47332 
 C(Fragment=2)         2.77395   6.27395   3.68128 
 C(Fragment=2)         1.26553   4.76553   2.47332 
 C(Fragment=2)         1.74605   5.24605   3.68128 
 H(Fragment=2)         4.02219   7.52219   2.47393 
 H(Fragment=2)         0.49781   3.99781   2.47393 
 C(Fragment=2)         3.25612   6.75612   4.94359 
 C(Fragment=2)         2.76632   6.26632   6.11636 
 C(Fragment=2)         1.26388   4.76388   4.94359 
 C(Fragment=2)         1.75368   5.25368   6.11636 
 H(Fragment=2)         4.02336   7.52336   4.94326 
 H(Fragment=2)         3.14056   6.64056   7.06253 
 H(Fragment=2)         1.37944   4.87944   7.06253 
 H(Fragment=2)         0.49664   3.99664   4.94326 
 
 ITRead=  0  0  0  0  0  0  0  0  0  0  0  0  0  0  0  0  0  0  0  0
 ITRead=  0  0  0  0  0  0  0  0  0  0  0  0  0  0  0  0  0  0  0  0
 ITRead=  0  0  0  0  0  0  0  0  0  0  0  0  0  0  0  0  0  0  0  0
 ITRead=  0  0  0  0  0  0  0  0  0  0  0  0
 MicOpt= -1 -1 -1 -1 -1 -1 -1 -1 -1 -1 -1 -1 -1 -1 -1 -1 -1 -1 -1 -1
 MicOpt= -1 -1 -1 -1 -1 -1 -1 -1 -1 -1 -1 -1 -1 -1 -1 -1 -1 -1 -1 -1
 MicOpt= -1 -1 -1 -1 -1 -1 -1 -1 -1 -1 -1 -1 -1 -1 -1 -1 -1 -1 -1 -1
 MicOpt= -1 -1 -1 -1 -1 -1 -1 -1 -1 -1 -1 -1
 NAtoms=     72 NQM=       72 NQMF=       0 NMMI=      0 NMMIF=      0
                NMic=       0 NMicF=      0.
                    Isotopes and Nuclear Properties:
 (Nuclear quadrupole moments (NQMom) in fm**2, nuclear magnetic moments (NMagM)
  in nuclear magnetons)

  Atom         1           2           3           4           5           6           7           8           9          10
 IAtWgt=          12          12          12          12          12          12          12          12          12          12
 AtmWgt=  12.0000000  12.0000000  12.0000000  12.0000000  12.0000000  12.0000000  12.0000000  12.0000000  12.0000000  12.0000000
 NucSpn=           0           0           0           0           0           0           0           0           0           0
 AtZEff=   0.0000000   0.0000000   0.0000000   0.0000000   0.0000000   0.0000000   0.0000000   0.0000000   0.0000000   0.0000000
 NQMom=    0.0000000   0.0000000   0.0000000   0.0000000   0.0000000   0.0000000   0.0000000   0.0000000   0.0000000   0.0000000
 NMagM=    0.0000000   0.0000000   0.0000000   0.0000000   0.0000000   0.0000000   0.0000000   0.0000000   0.0000000   0.0000000
 AtZNuc=   6.0000000   6.0000000   6.0000000   6.0000000   6.0000000   6.0000000   6.0000000   6.0000000   6.0000000   6.0000000

  Atom        11          12          13          14          15          16          17          18          19          20
 IAtWgt=           1           1           1           1           1           1          12          12          12          12
 AtmWgt=   1.0078250   1.0078250   1.0078250   1.0078250   1.0078250   1.0078250  12.0000000  12.0000000  12.0000000  12.0000000
 NucSpn=           1           1           1           1           1           1           0           0           0           0
 AtZEff=   0.0000000   0.0000000   0.0000000   0.0000000   0.0000000   0.0000000   0.0000000   0.0000000   0.0000000   0.0000000
 NQMom=    0.0000000   0.0000000   0.0000000   0.0000000   0.0000000   0.0000000   0.0000000   0.0000000   0.0000000   0.0000000
 NMagM=    2.7928460   2.7928460   2.7928460   2.7928460   2.7928460   2.7928460   0.0000000   0.0000000   0.0000000   0.0000000
 AtZNuc=   1.0000000   1.0000000   1.0000000   1.0000000   1.0000000   1.0000000   6.0000000   6.0000000   6.0000000   6.0000000

  Atom        21          22          23          24          25          26          27          28          29          30
 IAtWgt=           1           1          12          12          12          12           1           1          12          12
 AtmWgt=   1.0078250   1.0078250  12.0000000  12.0000000  12.0000000  12.0000000   1.0078250   1.0078250  12.0000000  12.0000000
 NucSpn=           1           1           0           0           0           0           1           1           0           0
 AtZEff=   0.0000000   0.0000000   0.0000000   0.0000000   0.0000000   0.0000000   0.0000000   0.0000000   0.0000000   0.0000000
 NQMom=    0.0000000   0.0000000   0.0000000   0.0000000   0.0000000   0.0000000   0.0000000   0.0000000   0.0000000   0.0000000
 NMagM=    2.7928460   2.7928460   0.0000000   0.0000000   0.0000000   0.0000000   2.7928460   2.7928460   0.0000000   0.0000000
 AtZNuc=   1.0000000   1.0000000   6.0000000   6.0000000   6.0000000   6.0000000   1.0000000   1.0000000   6.0000000   6.0000000

  Atom        31          32          33          34          35          36          37          38          39          40
 IAtWgt=          12          12           1           1           1           1          12          12          12          12
 AtmWgt=  12.0000000  12.0000000   1.0078250   1.0078250   1.0078250   1.0078250  12.0000000  12.0000000  12.0000000  12.0000000
 NucSpn=           0           0           1           1           1           1           0           0           0           0
 AtZEff=   0.0000000   0.0000000   0.0000000   0.0000000   0.0000000   0.0000000   0.0000000   0.0000000   0.0000000   0.0000000
 NQMom=    0.0000000   0.0000000   0.0000000   0.0000000   0.0000000   0.0000000   0.0000000   0.0000000   0.0000000   0.0000000
 NMagM=    0.0000000   0.0000000   2.7928460   2.7928460   2.7928460   2.7928460   0.0000000   0.0000000   0.0000000   0.0000000
 AtZNuc=   6.0000000   6.0000000   1.0000000   1.0000000   1.0000000   1.0000000   6.0000000   6.0000000   6.0000000   6.0000000

  Atom        41          42          43          44          45          46          47          48          49          50
 IAtWgt=          12          12          12          12          12          12           1           1           1           1
 AtmWgt=  12.0000000  12.0000000  12.0000000  12.0000000  12.0000000  12.0000000   1.0078250   1.0078250   1.0078250   1.0078250
 NucSpn=           0           0           0           0           0           0           1           1           1           1
 AtZEff=   0.0000000   0.0000000   0.0000000   0.0000000   0.0000000   0.0000000   0.0000000   0.0000000   0.0000000   0.0000000
 NQMom=    0.0000000   0.0000000   0.0000000   0.0000000   0.0000000   0.0000000   0.0000000   0.0000000   0.0000000   0.0000000
 NMagM=    0.0000000   0.0000000   0.0000000   0.0000000   0.0000000   0.0000000   2.7928460   2.7928460   2.7928460   2.7928460
 AtZNuc=   6.0000000   6.0000000   6.0000000   6.0000000   6.0000000   6.0000000   1.0000000   1.0000000   1.0000000   1.0000000

  Atom        51          52          53          54          55          56          57          58          59          60
 IAtWgt=           1           1          12          12          12          12           1           1          12          12
 AtmWgt=   1.0078250   1.0078250  12.0000000  12.0000000  12.0000000  12.0000000   1.0078250   1.0078250  12.0000000  12.0000000
 NucSpn=           1           1           0           0           0           0           1           1           0           0
 AtZEff=   0.0000000   0.0000000   0.0000000   0.0000000   0.0000000   0.0000000   0.0000000   0.0000000   0.0000000   0.0000000
 NQMom=    0.0000000   0.0000000   0.0000000   0.0000000   0.0000000   0.0000000   0.0000000   0.0000000   0.0000000   0.0000000
 NMagM=    2.7928460   2.7928460   0.0000000   0.0000000   0.0000000   0.0000000   2.7928460   2.7928460   0.0000000   0.0000000
 AtZNuc=   1.0000000   1.0000000   6.0000000   6.0000000   6.0000000   6.0000000   1.0000000   1.0000000   6.0000000   6.0000000

  Atom        61          62          63          64          65          66          67          68          69          70
 IAtWgt=          12          12           1           1          12          12          12          12           1           1
 AtmWgt=  12.0000000  12.0000000   1.0078250   1.0078250  12.0000000  12.0000000  12.0000000  12.0000000   1.0078250   1.0078250
 NucSpn=           0           0           1           1           0           0           0           0           1           1
 AtZEff=   0.0000000   0.0000000   0.0000000   0.0000000   0.0000000   0.0000000   0.0000000   0.0000000   0.0000000   0.0000000
 NQMom=    0.0000000   0.0000000   0.0000000   0.0000000   0.0000000   0.0000000   0.0000000   0.0000000   0.0000000   0.0000000
 NMagM=    0.0000000   0.0000000   2.7928460   2.7928460   0.0000000   0.0000000   0.0000000   0.0000000   2.7928460   2.7928460
 AtZNuc=   6.0000000   6.0000000   1.0000000   1.0000000   6.0000000   6.0000000   6.0000000   6.0000000   1.0000000   1.0000000

  Atom        71          72
 IAtWgt=           1           1
 AtmWgt=   1.0078250   1.0078250
 NucSpn=           1           1
 AtZEff=   0.0000000   0.0000000
 NQMom=    0.0000000   0.0000000
 NMagM=    2.7928460   2.7928460
 AtZNuc=   1.0000000   1.0000000
 Leave Link  101 at Wed Sep 27 16:37:39 2023, MaxMem=  3221225472 cpu:               2.5 elap:               0.1
 (Enter /home/center/opt/aarch64/apps/gaussian16/c01/g16/l202.exe)
 Stoichiometry    C44H28
 Framework group  CS[SG(C4H4),X(C40H24)]
 Deg. of freedom   109
 Full point group                 CS      NOp   2
 Largest Abelian subgroup         CS      NOp   2
 Largest concise Abelian subgroup CS      NOp   2
                         Standard orientation:                         
 ---------------------------------------------------------------------
 Center     Atomic      Atomic             Coordinates (Angstroms)
 Number     Number       Type             X           Y           Z
 ---------------------------------------------------------------------
      1          6           0       -0.510605   -2.828427    3.671276
      2          6           0       -1.964269   -2.828427    3.671276
      3          6           0        0.171296   -2.828427    4.933593
      4          6           0       -2.646170   -2.828427    4.933593
      5          6           0       -0.521390   -2.828427    6.106357
      6          6           0       -1.953484   -2.828427    6.106357
      7          6           0        0.168954   -2.828427    2.463318
      8          6           0       -0.509840   -2.828427    1.224029
      9          6           0       -2.643828   -2.828427    2.463317
     10          6           0       -1.965033   -2.828427    1.224029
     11          1           0        1.256325   -2.828427    4.933260
     12          1           0        1.254671   -2.828427    2.463929
     13          1           0       -3.729544   -2.828427    2.463929
     14          1           0       -3.731199   -2.828427    4.933260
     15          1           0       -2.482732   -2.828427    7.052528
     16          1           0        0.007858   -2.828427    7.052528
     17          6           0        0.169449   -2.828427    0.000000
     18          6           0       -0.509840   -2.828427   -1.224029
     19          6           0       -2.644323   -2.828427    0.000000
     20          6           0       -1.965033   -2.828427   -1.224029
     21          1           0        1.255072   -2.828427    0.000000
     22          1           0       -3.729944   -2.828427    0.000000
     23          6           0        0.168954   -2.828427   -2.463318
     24          6           0       -0.510605   -2.828427   -3.671276
     25          6           0       -2.643828   -2.828427   -2.463317
     26          6           0       -1.964269   -2.828427   -3.671276
     27          1           0        1.254671   -2.828427   -2.463929
     28          1           0       -3.729544   -2.828427   -2.463929
     29          6           0        0.171296   -2.828427   -4.933593
     30          6           0       -0.521390   -2.828427   -6.106357
     31          6           0       -2.646170   -2.828427   -4.933593
     32          6           0       -1.953484   -2.828427   -6.106357
     33          1           0        1.256325   -2.828427   -4.933260
     34          1           0        0.007858   -2.828427   -7.052528
     35          1           0       -2.482732   -2.828427   -7.052528
     36          1           0       -3.731199   -2.828427   -4.933260
     37          6           0        1.237437    3.555259    3.671276
     38          6           0        1.237437    2.101595    3.671276
     39          6           0        1.237437    4.237160    4.933593
     40          6           0        1.237437    1.419694    4.933593
     41          6           0        1.237437    3.544474    6.106357
     42          6           0        1.237437    2.112380    6.106357
     43          6           0        1.237437    4.234818    2.463318
     44          6           0        1.237437    3.556024    1.224029
     45          6           0        1.237437    1.422036    2.463317
     46          6           0        1.237437    2.100830    1.224029
     47          1           0        1.237437    5.322189    4.933260
     48          1           0        1.237437    5.320535    2.463929
     49          1           0        1.237437    0.336320    2.463929
     50          1           0        1.237437    0.334665    4.933260
     51          1           0        1.237437    1.583132    7.052528
     52          1           0        1.237437    4.073722    7.052528
     53          6           0        1.237437    4.235313    0.000000
     54          6           0        1.237437    3.556024   -1.224029
     55          6           0        1.237437    1.421541    0.000000
     56          6           0        1.237437    2.100830   -1.224029
     57          1           0        1.237437    5.320936    0.000000
     58          1           0        1.237437    0.335920    0.000000
     59          6           0        1.237437    4.234818   -2.463318
     60          6           0        1.237437    3.555259   -3.671276
     61          6           0        1.237437    1.422036   -2.463317
     62          6           0        1.237437    2.101595   -3.671276
     63          1           0        1.237437    5.320535   -2.463929
     64          1           0        1.237437    0.336320   -2.463929
     65          6           0        1.237437    4.237160   -4.933593
     66          6           0        1.237437    3.544474   -6.106357
     67          6           0        1.237437    1.419694   -4.933593
     68          6           0        1.237437    2.112380   -6.106357
     69          1           0        1.237437    5.322189   -4.933260
     70          1           0        1.237437    4.073722   -7.052528
     71          1           0        1.237437    1.583132   -7.052528
     72          1           0        1.237437    0.334665   -4.933260
 ---------------------------------------------------------------------
 Rotational constants (GHZ):           0.0833218           0.0563744           0.0354250
 Leave Link  202 at Wed Sep 27 16:37:41 2023, MaxMem=  3221225472 cpu:               0.6 elap:               0.0
 (Enter /home/center/opt/aarch64/apps/gaussian16/c01/g16/l122.exe)
 Counterpoise: doing full-system calculation.
 Leave Link  122 at Wed Sep 27 16:37:43 2023, MaxMem=  3221225472 cpu:               0.4 elap:               0.0
 (Enter /home/center/opt/aarch64/apps/gaussian16/c01/g16/l301.exe)
 Standard basis: 6-311G(d,p) (5D, 7F)
 Ernie: Thresh=  0.10000D-02 Tol=  0.10000D-05 Strict=F.
 There are   528 symmetry adapted cartesian basis functions of A'  symmetry.
 There are   476 symmetry adapted cartesian basis functions of A"  symmetry.
 There are   504 symmetry adapted basis functions of A'  symmetry.
 There are   456 symmetry adapted basis functions of A"  symmetry.
   960 basis functions,  1632 primitive gaussians,  1004 cartesian basis functions
   146 alpha electrons      146 beta electrons
       nuclear repulsion energy      4463.7948433820 Hartrees.
 IExCor=  402 DFT=T Ex+Corr=B3LYP ExCW=0 ScaHFX=  0.200000
 ScaDFX=  0.800000  0.720000  1.000000  0.810000 ScalE2=  1.000000  1.000000
 IRadAn=      5 IRanWt=     -1 IRanGd=            0 ICorTp=0 IEmpDi=131
 NAtoms=   72 NActive=   72 NUniq=   40 SFac= 3.24D+00 NAtFMM=   60 NAOKFM=T Big=F
 Integral buffers will be    131072 words long.
 Raffenetti 2 integral format.
 Two-electron integral symmetry is turned on.
 R6Disp:  Grimme-D3 Dispersion energy=       -0.0697929798 Hartrees.
 Nuclear repulsion after empirical dispersion term =     4463.7250504022 Hartrees.
 Leave Link  301 at Wed Sep 27 16:37:46 2023, MaxMem=  3221225472 cpu:               2.0 elap:               0.1
 (Enter /home/center/opt/aarch64/apps/gaussian16/c01/g16/l302.exe)
 NPDir=0 NMtPBC=     1 NCelOv=     1 NCel=       1 NClECP=     1 NCelD=      1
         NCelK=      1 NCelE2=     1 NClLst=     1 CellRange=     0.0.
 One-electron integrals computed using PRISM.
 One-electron integral symmetry used in STVInt
 NBasis=   960 RedAO= T EigKep=  3.99D-05  NBF=   504   456
 NBsUse=   960 1.00D-06 EigRej= -1.00D+00 NBFU=   504   456
 Precomputing XC quadrature grid using
 IXCGrd= 4 IRadAn=           5 IRanWt=          -1 IRanGd=           0 AccXCQ= 0.00D+00.
 Generated NRdTot=       0 NPtTot=           0 NUsed=           0 NTot=          32
 NSgBfM=   987   987   987   987   987 MxSgAt=    72 MxSgA2=    72.
 Leave Link  302 at Wed Sep 27 16:37:50 2023, MaxMem=  3221225472 cpu:              63.4 elap:               1.9
 (Enter /home/center/opt/aarch64/apps/gaussian16/c01/g16/l303.exe)
 DipDrv:  MaxL=1.
 Leave Link  303 at Wed Sep 27 16:37:53 2023, MaxMem=  3221225472 cpu:              11.3 elap:               0.4
 (Enter /home/center/opt/aarch64/apps/gaussian16/c01/g16/l401.exe)
 ExpMin= 1.03D-01 ExpMax= 4.56D+03 ExpMxC= 6.82D+02 IAcc=3 IRadAn=         5 AccDes= 0.00D+00
 Harris functional with IExCor=  402 and IRadAn=       5 diagonalized for initial guess.
 HarFok:  IExCor=  402 AccDes= 0.00D+00 IRadAn=         5 IDoV= 1 UseB2=F ITyADJ=14
 ICtDFT=  3500011 ScaDFX=  1.000000  1.000000  1.000000  1.000000
 FoFCou: FMM=F IPFlag=           0 FMFlag=      100000 FMFlg1=        2000
         NFxFlg=           0 DoJE=T BraDBF=F KetDBF=T FulRan=T
         wScrn=  0.000000 ICntrl=       500 IOpCl=  0 I1Cent=   200000004 NGrid=           0
         NMat0=    1 NMatS0=      1 NMatT0=    0 NMatD0=    1 NMtDS0=    0 NMtDT0=    0
 Petite list used in FoFCou.
 Harris En= -1694.13442957513    
 JPrj=0 DoOrth=F DoCkMO=F.
 Initial guess orbital symmetries:
       Occupied  (A") (A') (A") (A') (A') (A") (A') (A") (A") (A')
                 (A") (A') (A") (A') (A") (A') (A") (A') (A') (A")
                 (A") (A') (A") (A') (A') (A') (A') (A') (A") (A")
                 (A') (A') (A") (A") (A') (A') (A") (A') (A") (A')
                 (A') (A") (A') (A") (A') (A') (A") (A") (A') (A')
                 (A") (A") (A') (A') (A') (A') (A") (A") (A') (A')
                 (A") (A") (A") (A") (A') (A') (A') (A') (A") (A")
                 (A") (A") (A') (A') (A") (A") (A') (A') (A') (A')
                 (A') (A') (A") (A") (A") (A") (A") (A') (A") (A')
                 (A') (A') (A") (A") (A') (A') (A') (A') (A") (A")
                 (A') (A') (A") (A") (A") (A") (A') (A') (A') (A')
                 (A") (A") (A') (A') (A") (A") (A') (A') (A") (A")
                 (A") (A") (A') (A') (A') (A') (A") (A") (A') (A')
                 (A") (A") (A') (A') (A") (A") (A') (A') (A') (A')
                 (A") (A") (A") (A") (A') (A')
       Virtual   (A') (A') (A") (A") (A") (A") (A') (A') (A') (A')
                 (A") (A") (A') (A') (A") (A") (A') (A") (A') (A')
                 (A') (A') (A") (A") (A') (A') (A") (A") (A') (A')
                 (A") (A') (A") (A") (A') (A") (A") (A') (A') (A')
                 (A") (A') (A") (A") (A') (A') (A") (A') (A') (A')
                 (A') (A") (A') (A") (A') (A') (A') (A") (A") (A')
                 (A") (A") (A") (A") (A') (A') (A") (A") (A') (A")
                 (A') (A") (A') (A') (A") (A') (A") (A") (A') (A")
                 (A') (A') (A') (A") (A') (A') (A") (A') (A") (A")
                 (A') (A') (A") (A') (A") (A') (A') (A") (A") (A")
                 (A") (A") (A') (A') (A") (A') (A') (A") (A') (A')
                 (A') (A') (A") (A') (A') (A") (A") (A') (A') (A")
                 (A') (A') (A") (A") (A') (A") (A") (A') (A") (A')
                 (A") (A") (A") (A") (A') (A") (A') (A') (A") (A')
                 (A") (A') (A') (A') (A") (A') (A') (A") (A') (A')
                 (A') (A') (A') (A") (A") (A") (A') (A') (A") (A")
                 (A') (A") (A') (A") (A") (A') (A") (A') (A") (A')
                 (A") (A') (A") (A') (A") (A') (A') (A") (A') (A")
                 (A") (A') (A') (A") (A') (A") (A') (A') (A') (A')
                 (A') (A") (A") (A") (A') (A") (A') (A') (A") (A")
                 (A") (A') (A') (A") (A') (A') (A") (A') (A") (A')
                 (A') (A") (A") (A") (A') (A') (A") (A") (A') (A")
                 (A') (A") (A') (A") (A") (A") (A') (A') (A') (A')
                 (A") (A') (A") (A') (A') (A") (A') (A") (A') (A")
                 (A") (A") (A') (A') (A') (A") (A") (A') (A') (A')
                 (A") (A') (A") (A") (A') (A") (A') (A") (A") (A')
                 (A") (A') (A') (A') (A") (A") (A") (A') (A') (A')
                 (A") (A") (A") (A') (A") (A") (A') (A') (A") (A')
                 (A') (A") (A") (A') (A') (A') (A") (A') (A") (A")
                 (A') (A") (A') (A') (A') (A") (A") (A") (A') (A")
                 (A") (A") (A") (A') (A') (A') (A") (A') (A') (A')
                 (A') (A") (A") (A') (A") (A") (A") (A") (A') (A')
                 (A') (A') (A") (A') (A') (A') (A") (A") (A') (A")
                 (A") (A") (A') (A") (A') (A") (A') (A') (A') (A")
                 (A') (A") (A') (A") (A") (A') (A") (A') (A") (A')
                 (A') (A') (A") (A") (A') (A') (A") (A') (A') (A')
                 (A") (A') (A') (A') (A") (A") (A") (A") (A") (A")
                 (A") (A") (A") (A') (A') (A') (A") (A') (A') (A')
                 (A") (A") (A') (A') (A') (A') (A') (A") (A') (A")
                 (A') (A') (A") (A") (A') (A') (A") (A") (A") (A")
                 (A') (A') (A") (A') (A") (A') (A') (A") (A") (A')
                 (A') (A') (A") (A") (A') (A') (A") (A") (A') (A')
                 (A') (A') (A') (A') (A") (A') (A") (A") (A') (A")
                 (A") (A") (A") (A') (A") (A') (A") (A') (A') (A")
                 (A") (A") (A') (A") (A') (A") (A') (A") (A') (A")
                 (A') (A') (A') (A') (A") (A") (A') (A') (A") (A")
                 (A") (A') (A') (A") (A') (A') (A") (A") (A") (A')
                 (A") (A') (A") (A') (A") (A") (A') (A") (A') (A')
                 (A") (A') (A') (A') (A") (A') (A") (A") (A") (A")
                 (A') (A') (A") (A") (A") (A") (A") (A") (A') (A')
                 (A') (A') (A") (A") (A') (A') (A') (A') (A") (A')
                 (A") (A') (A') (A') (A") (A") (A") (A") (A') (A')
                 (A") (A") (A') (A') (A") (A") (A') (A') (A") (A')
                 (A") (A') (A') (A') (A") (A") (A') (A") (A') (A")
                 (A") (A") (A') (A') (A') (A') (A") (A") (A") (A")
                 (A") (A') (A") (A') (A") (A") (A') (A') (A') (A')
                 (A') (A") (A') (A") (A') (A") (A") (A') (A') (A')
                 (A") (A") (A") (A") (A') (A') (A") (A') (A") (A')
                 (A') (A') (A') (A') (A") (A") (A") (A') (A') (A')
                 (A") (A') (A') (A") (A') (A') (A') (A") (A") (A")
                 (A") (A') (A') (A") (A') (A") (A') (A") (A") (A")
                 (A') (A') (A') (A") (A") (A') (A') (A') (A") (A")
                 (A") (A") (A') (A") (A') (A') (A') (A") (A") (A')
                 (A') (A') (A') (A") (A') (A") (A') (A') (A") (A')
                 (A") (A") (A") (A") (A") (A') (A") (A') (A") (A')
                 (A') (A') (A') (A') (A") (A') (A') (A") (A') (A")
                 (A') (A") (A") (A") (A') (A") (A') (A') (A') (A")
                 (A') (A") (A') (A") (A') (A") (A") (A") (A') (A')
                 (A") (A") (A') (A') (A') (A") (A') (A") (A") (A")
                 (A') (A') (A') (A") (A') (A") (A') (A') (A") (A")
                 (A') (A') (A") (A") (A') (A') (A") (A") (A') (A")
                 (A') (A") (A") (A") (A') (A') (A') (A') (A") (A")
                 (A') (A') (A") (A") (A') (A') (A') (A') (A") (A")
                 (A') (A") (A') (A") (A") (A') (A") (A') (A') (A')
                 (A") (A") (A') (A') (A") (A") (A') (A') (A') (A')
                 (A") (A") (A') (A') (A") (A") (A') (A') (A") (A")
                 (A") (A") (A') (A') (A") (A") (A') (A") (A') (A")
                 (A') (A') (A") (A") (A') (A') (A') (A') (A") (A")
                 (A") (A") (A') (A') (A") (A") (A') (A') (A') (A')
                 (A") (A") (A") (A") (A') (A') (A') (A') (A") (A")
                 (A') (A') (A") (A") (A') (A') (A") (A") (A') (A')
                 (A') (A") (A') (A")
 The electronic state of the initial guess is 1-A'.
 Leave Link  401 at Wed Sep 27 16:37:57 2023, MaxMem=  3221225472 cpu:             101.3 elap:               2.5
 (Enter /home/center/opt/aarch64/apps/gaussian16/c01/g16/l502.exe)
 Integral symmetry usage will be decided dynamically.
 Closed shell SCF:
 Using DIIS extrapolation, IDIIS=  1040.
 NGot=  3221225472 LenX=  3219153746 LenY=  3218144726
 Requested convergence on RMS density matrix=1.00D-08 within 128 cycles.
 Requested convergence on MAX density matrix=1.00D-06.
 Requested convergence on             energy=1.00D-06.
 No special actions if energy rises.
 Fock matrices will be formed incrementally for  20 cycles.
 Integral accuracy reduced to 1.0D-05 until final iterations.

 Cycle   1  Pass 0  IDiag  1:
 FoFJK:  IHMeth= 1 ICntrl=       0 DoSepK=F KAlg= 0 I1Cent=           0 FoldK=F
 IRaf= 520000000 NMat=       1 IRICut=       1 DoRegI=T DoRafI=F ISym2E= 1 IDoP0=0 IntGTp=1.
 FoFCou: FMM=F IPFlag=           0 FMFlag=      100000 FMFlg1=        2000
         NFxFlg=           0 DoJE=F BraDBF=F KetDBF=F FulRan=T
         wScrn=  0.000000 ICntrl=         0 IOpCl=  0 I1Cent=           0 NGrid=           0
         NMat0=    1 NMatS0=      1 NMatT0=    0 NMatD0=    1 NMtDS0=    0 NMtDT0=    0
 Petite list used in FoFCou.
 E= -1693.15181282022    
 DIIS: error= 4.50D-02 at cycle   1 NSaved=   1.
 NSaved= 1 IEnMin= 1 EnMin= -1693.15181282022     IErMin= 1 ErrMin= 4.50D-02
 ErrMax= 4.50D-02  0.00D+00 EMaxC= 1.00D-01 BMatC= 9.07D-01 BMatP= 9.07D-01
 IDIUse=3 WtCom= 5.50D-01 WtEn= 4.50D-01
 Coeff-Com:  0.100D+01
 Coeff-En:   0.100D+01
 Coeff:      0.100D+01
 Gap=     0.077 Goal=   None    Shift=    0.000
 GapD=    0.077 DampG=0.500 DampE=0.500 DampFc=0.2500 IDamp=-1.
 Damping current iteration by 2.50D-01
 RMSDP=1.79D-03 MaxDP=8.42D-02              OVMax= 1.61D-01

 Cycle   2  Pass 0  IDiag  1:
 RMSU=  4.33D-04    CP:  9.82D-01
 E= -1693.46513332447     Delta-E=       -0.313320504260 Rises=F Damp=T
 DIIS: error= 2.60D-02 at cycle   2 NSaved=   2.
 NSaved= 2 IEnMin= 2 EnMin= -1693.46513332447     IErMin= 2 ErrMin= 2.60D-02
 ErrMax= 2.60D-02  0.00D+00 EMaxC= 1.00D-01 BMatC= 2.99D-01 BMatP= 9.07D-01
 IDIUse=3 WtCom= 7.40D-01 WtEn= 2.60D-01
 Coeff-Com: -0.119D+01 0.219D+01
 Coeff-En:   0.000D+00 0.100D+01
 Coeff:     -0.883D+00 0.188D+01
 Gap=     0.071 Goal=   None    Shift=    0.000
 RMSDP=6.74D-04 MaxDP=3.33D-02 DE=-3.13D-01 OVMax= 8.28D-02

 Cycle   3  Pass 0  IDiag  1:
 RMSU=  4.49D-04    CP:  9.57D-01  2.11D+00
 E= -1694.03732474394     Delta-E=       -0.572191419467 Rises=F Damp=F
 DIIS: error= 5.42D-03 at cycle   3 NSaved=   3.
 NSaved= 3 IEnMin= 3 EnMin= -1694.03732474394     IErMin= 3 ErrMin= 5.42D-03
 ErrMax= 5.42D-03  0.00D+00 EMaxC= 1.00D-01 BMatC= 1.17D-02 BMatP= 2.99D-01
 IDIUse=3 WtCom= 9.46D-01 WtEn= 5.42D-02
 Coeff-Com: -0.250D+00 0.516D+00 0.734D+00
 Coeff-En:   0.000D+00 0.000D+00 0.100D+01
 Coeff:     -0.236D+00 0.488D+00 0.749D+00
 Gap=     0.074 Goal=   None    Shift=    0.000
 RMSDP=2.30D-04 MaxDP=1.28D-02 DE=-5.72D-01 OVMax= 8.75D-02

 Cycle   4  Pass 0  IDiag  1:
 RMSU=  1.89D-04    CP:  9.58D-01  2.05D+00  7.13D-01
 E= -1694.03389950520     Delta-E=        0.003425238742 Rises=F Damp=F
 DIIS: error= 7.75D-03 at cycle   4 NSaved=   4.
 NSaved= 4 IEnMin= 3 EnMin= -1694.03732474394     IErMin= 3 ErrMin= 5.42D-03
 ErrMax= 7.75D-03  0.00D+00 EMaxC= 1.00D-01 BMatC= 1.30D-02 BMatP= 1.17D-02
 IDIUse=3 WtCom= 1.02D-01 WtEn= 8.98D-01
 Coeff-Com: -0.428D-01 0.114D+00 0.517D+00 0.412D+00
 Coeff-En:   0.000D+00 0.000D+00 0.553D+00 0.447D+00
 Coeff:     -0.437D-02 0.116D-01 0.549D+00 0.444D+00
 Gap=     0.072 Goal=   None    Shift=    0.000
 RMSDP=1.41D-04 MaxDP=9.47D-03 DE= 3.43D-03 OVMax= 7.94D-02

 Cycle   5  Pass 0  IDiag  1:
 RMSU=  7.99D-05    CP:  9.58D-01  2.04D+00  7.82D-01  4.05D-01
 E= -1694.04794800480     Delta-E=       -0.014048499603 Rises=F Damp=F
 DIIS: error= 2.14D-03 at cycle   5 NSaved=   5.
 NSaved= 5 IEnMin= 5 EnMin= -1694.04794800480     IErMin= 5 ErrMin= 2.14D-03
 ErrMax= 2.14D-03  0.00D+00 EMaxC= 1.00D-01 BMatC= 1.19D-03 BMatP= 1.17D-02
 IDIUse=3 WtCom= 9.79D-01 WtEn= 2.14D-02
 Coeff-Com: -0.170D-01 0.371D-01 0.252D+00 0.262D+00 0.466D+00
 Coeff-En:   0.000D+00 0.000D+00 0.000D+00 0.606D-01 0.939D+00
 Coeff:     -0.166D-01 0.363D-01 0.247D+00 0.257D+00 0.476D+00
 Gap=     0.072 Goal=   None    Shift=    0.000
 RMSDP=5.16D-05 MaxDP=3.66D-03 DE=-1.40D-02 OVMax= 3.54D-02

 Cycle   6  Pass 0  IDiag  1:
 RMSU=  2.53D-05    CP:  9.58D-01  2.06D+00  7.93D-01  5.19D-01  5.24D-01
 E= -1694.04906415228     Delta-E=       -0.001116147479 Rises=F Damp=F
 DIIS: error= 1.30D-03 at cycle   6 NSaved=   6.
 NSaved= 6 IEnMin= 6 EnMin= -1694.04906415228     IErMin= 6 ErrMin= 1.30D-03
 ErrMax= 1.30D-03  0.00D+00 EMaxC= 1.00D-01 BMatC= 2.69D-04 BMatP= 1.19D-03
 IDIUse=3 WtCom= 9.87D-01 WtEn= 1.30D-02
 Coeff-Com: -0.467D-02 0.731D-02 0.101D+00 0.124D+00 0.349D+00 0.423D+00
 Coeff-En:   0.000D+00 0.000D+00 0.000D+00 0.000D+00 0.202D+00 0.798D+00
 Coeff:     -0.461D-02 0.722D-02 0.996D-01 0.122D+00 0.347D+00 0.428D+00
 Gap=     0.072 Goal=   None    Shift=    0.000
 RMSDP=2.08D-05 MaxDP=1.71D-03 DE=-1.12D-03 OVMax= 1.52D-02

 Cycle   7  Pass 0  IDiag  1:
 RMSU=  8.00D-06    CP:  9.58D-01  2.06D+00  7.97D-01  5.00D-01  6.14D-01
                    CP:  3.16D-01
 E= -1694.04935468617     Delta-E=       -0.000290533889 Rises=F Damp=F
 DIIS: error= 3.60D-04 at cycle   7 NSaved=   7.
 NSaved= 7 IEnMin= 7 EnMin= -1694.04935468617     IErMin= 7 ErrMin= 3.60D-04
 ErrMax= 3.60D-04  0.00D+00 EMaxC= 1.00D-01 BMatC= 2.53D-05 BMatP= 2.69D-04
 IDIUse=3 WtCom= 9.96D-01 WtEn= 3.60D-03
 Coeff-Com: -0.144D-02 0.157D-02 0.543D-01 0.688D-01 0.212D+00 0.302D+00
 Coeff-Com:  0.363D+00
 Coeff-En:   0.000D+00 0.000D+00 0.000D+00 0.000D+00 0.000D+00 0.619D-01
 Coeff-En:   0.938D+00
 Coeff:     -0.143D-02 0.157D-02 0.541D-01 0.685D-01 0.211D+00 0.301D+00
 Coeff:      0.365D+00
 Gap=     0.072 Goal=   None    Shift=    0.000
 RMSDP=6.18D-06 MaxDP=3.52D-04 DE=-2.91D-04 OVMax= 2.97D-03

 Initial convergence to 1.0D-05 achieved.  Increase integral accuracy.
 Cycle   8  Pass 1  IDiag  1:
 E= -1694.04909726277     Delta-E=        0.000257423395 Rises=F Damp=F
 DIIS: error= 4.26D-04 at cycle   1 NSaved=   1.
 NSaved= 1 IEnMin= 1 EnMin= -1694.04909726277     IErMin= 1 ErrMin= 4.26D-04
 ErrMax= 4.26D-04  0.00D+00 EMaxC= 1.00D-01 BMatC= 3.47D-05 BMatP= 3.47D-05
 IDIUse=3 WtCom= 9.96D-01 WtEn= 4.26D-03
 Coeff-Com:  0.100D+01
 Coeff-En:   0.100D+01
 Coeff:      0.100D+01
 Gap=     0.072 Goal=   None    Shift=    0.000
 RMSDP=6.18D-06 MaxDP=3.52D-04 DE= 2.57D-04 OVMax= 2.41D-03

 Cycle   9  Pass 1  IDiag  1:
 RMSU=  2.73D-04    CP:  9.98D-01
 E= -1694.04912618111     Delta-E=       -0.000028918337 Rises=F Damp=F
 DIIS: error= 2.07D-04 at cycle   2 NSaved=   2.
 NSaved= 2 IEnMin= 2 EnMin= -1694.04912618111     IErMin= 2 ErrMin= 2.07D-04
 ErrMax= 2.07D-04  0.00D+00 EMaxC= 1.00D-01 BMatC= 5.06D-06 BMatP= 3.47D-05
 IDIUse=3 WtCom= 9.98D-01 WtEn= 2.07D-03
 Coeff-Com:  0.155D+00 0.845D+00
 Coeff-En:   0.000D+00 0.100D+01
 Coeff:      0.155D+00 0.845D+00
 Gap=     0.072 Goal=   None    Shift=    0.000
 RMSDP=8.25D-06 MaxDP=6.36D-04 DE=-2.89D-05 OVMax= 5.72D-03

 Cycle  10  Pass 1  IDiag  1:
 RMSU=  8.01D-06    CP:  9.98D-01  1.01D+00
 E= -1694.04910024778     Delta-E=        0.000025933334 Rises=F Damp=F
 DIIS: error= 4.90D-04 at cycle   3 NSaved=   3.
 NSaved= 3 IEnMin= 2 EnMin= -1694.04912618111     IErMin= 2 ErrMin= 2.07D-04
 ErrMax= 4.90D-04  0.00D+00 EMaxC= 1.00D-01 BMatC= 2.54D-05 BMatP= 5.06D-06
 IDIUse=3 WtCom= 3.11D-01 WtEn= 6.89D-01
 Coeff-Com: -0.826D-03 0.693D+00 0.308D+00
 Coeff-En:   0.000D+00 0.763D+00 0.237D+00
 Coeff:     -0.257D-03 0.741D+00 0.259D+00
 Gap=     0.072 Goal=   None    Shift=    0.000
 RMSDP=4.64D-06 MaxDP=3.49D-04 DE= 2.59D-05 OVMax= 3.33D-03

 Cycle  11  Pass 1  IDiag  1:
 RMSU=  8.33D-07    CP:  9.98D-01  1.01D+00  4.35D-01
 E= -1694.04913132023     Delta-E=       -0.000031072449 Rises=F Damp=F
 DIIS: error= 7.80D-05 at cycle   4 NSaved=   4.
 NSaved= 4 IEnMin= 4 EnMin= -1694.04913132023     IErMin= 4 ErrMin= 7.80D-05
 ErrMax= 7.80D-05  0.00D+00 EMaxC= 1.00D-01 BMatC= 9.72D-07 BMatP= 5.06D-06
 IDIUse=1 WtCom= 1.00D+00 WtEn= 0.00D+00
 Coeff-Com: -0.372D-02 0.446D+00 0.118D+00 0.439D+00
 Coeff:     -0.372D-02 0.446D+00 0.118D+00 0.439D+00
 Gap=     0.072 Goal=   None    Shift=    0.000
 RMSDP=1.06D-06 MaxDP=8.61D-05 DE=-3.11D-05 OVMax= 6.97D-04

 Cycle  12  Pass 1  IDiag  1:
 RMSU=  3.33D-07    CP:  9.98D-01  1.01D+00  3.14D-01  7.34D-01
 E= -1694.04913246180     Delta-E=       -0.000001141570 Rises=F Damp=F
 DIIS: error= 3.92D-06 at cycle   5 NSaved=   5.
 NSaved= 5 IEnMin= 5 EnMin= -1694.04913246180     IErMin= 5 ErrMin= 3.92D-06
 ErrMax= 3.92D-06  0.00D+00 EMaxC= 1.00D-01 BMatC= 4.56D-09 BMatP= 9.72D-07
 IDIUse=1 WtCom= 1.00D+00 WtEn= 0.00D+00
 Coeff-Com: -0.229D-02 0.262D+00 0.668D-01 0.273D+00 0.400D+00
 Coeff:     -0.229D-02 0.262D+00 0.668D-01 0.273D+00 0.400D+00
 Gap=     0.072 Goal=   None    Shift=    0.000
 RMSDP=1.02D-07 MaxDP=7.88D-06 DE=-1.14D-06 OVMax= 6.09D-05

 Cycle  13  Pass 1  IDiag  1:
 RMSU=  9.18D-08    CP:  9.98D-01  1.01D+00  3.13D-01  7.54D-01  8.81D-01
 E= -1694.04913246680     Delta-E=       -0.000000004999 Rises=F Damp=F
 DIIS: error= 1.89D-06 at cycle   6 NSaved=   6.
 NSaved= 6 IEnMin= 6 EnMin= -1694.04913246680     IErMin= 6 ErrMin= 1.89D-06
 ErrMax= 1.89D-06  0.00D+00 EMaxC= 1.00D-01 BMatC= 7.38D-10 BMatP= 4.56D-09
 IDIUse=1 WtCom= 1.00D+00 WtEn= 0.00D+00
 Coeff-Com: -0.937D-03 0.104D+00 0.256D-01 0.112D+00 0.283D+00 0.477D+00
 Coeff:     -0.937D-03 0.104D+00 0.256D-01 0.112D+00 0.283D+00 0.477D+00
 Gap=     0.072 Goal=   None    Shift=    0.000
 RMSDP=3.43D-08 MaxDP=2.30D-06 DE=-5.00D-09 OVMax= 2.16D-05

 Cycle  14  Pass 1  IDiag  1:
 RMSU=  2.54D-08    CP:  9.98D-01  1.01D+00  3.13D-01  7.51D-01  9.15D-01
                    CP:  7.86D-01
 E= -1694.04913246761     Delta-E=       -0.000000000817 Rises=F Damp=F
 DIIS: error= 4.28D-07 at cycle   7 NSaved=   7.
 NSaved= 7 IEnMin= 7 EnMin= -1694.04913246761     IErMin= 7 ErrMin= 4.28D-07
 ErrMax= 4.28D-07  0.00D+00 EMaxC= 1.00D-01 BMatC= 4.79D-11 BMatP= 7.38D-10
 IDIUse=1 WtCom= 1.00D+00 WtEn= 0.00D+00
 Coeff-Com: -0.419D-03 0.456D-01 0.112D-01 0.500D-01 0.140D+00 0.285D+00
 Coeff-Com:  0.469D+00
 Coeff:     -0.419D-03 0.456D-01 0.112D-01 0.500D-01 0.140D+00 0.285D+00
 Coeff:      0.469D+00
 Gap=     0.072 Goal=   None    Shift=    0.000
 RMSDP=1.08D-08 MaxDP=4.96D-07 DE=-8.17D-10 OVMax= 5.36D-06

 Cycle  15  Pass 1  IDiag  1:
 RMSU=  6.67D-09    CP:  9.98D-01  1.01D+00  3.13D-01  7.52D-01  9.17D-01
                    CP:  8.07D-01  6.82D-01
 E= -1694.04913246766     Delta-E=       -0.000000000045 Rises=F Damp=F
 DIIS: error= 2.15D-07 at cycle   8 NSaved=   8.
 NSaved= 8 IEnMin= 8 EnMin= -1694.04913246766     IErMin= 8 ErrMin= 2.15D-07
 ErrMax= 2.15D-07  0.00D+00 EMaxC= 1.00D-01 BMatC= 1.21D-11 BMatP= 4.79D-11
 IDIUse=1 WtCom= 1.00D+00 WtEn= 0.00D+00
 Coeff-Com: -0.203D-04 0.166D-02 0.363D-03 0.244D-02 0.216D-01 0.783D-01
 Coeff-Com:  0.338D+00 0.557D+00
 Coeff:     -0.203D-04 0.166D-02 0.363D-03 0.244D-02 0.216D-01 0.783D-01
 Coeff:      0.338D+00 0.557D+00
 Gap=     0.072 Goal=   None    Shift=    0.000
 RMSDP=4.54D-09 MaxDP=2.08D-07 DE=-4.55D-11 OVMax= 2.09D-06

 SCF Done:  E(RB3LYP) =  -1694.04913247     A.U. after   15 cycles
            NFock= 15  Conv=0.45D-08     -V/T= 2.0044
 KE= 1.686671953699D+03 PE=-1.285777250044D+04 EE= 5.013326363874D+03
 Leave Link  502 at Wed Sep 27 16:39:36 2023, MaxMem=  3221225472 cpu:            3428.1 elap:              96.7
 (Enter /home/center/opt/aarch64/apps/gaussian16/c01/g16/l601.exe)
 Copying SCF densities to generalized density rwf, IOpCl= 0 IROHF=0.

 **********************************************************************

            Population analysis using the SCF Density.

 **********************************************************************

 Orbital symmetries:
       Occupied  (A") (A') (A') (A") (A") (A') (A") (A') (A") (A')
                 (A') (A') (A") (A") (A') (A') (A") (A') (A") (A')
                 (A") (A') (A") (A') (A") (A') (A") (A') (A") (A')
                 (A") (A') (A') (A") (A') (A') (A") (A') (A") (A')
                 (A") (A') (A") (A') (A') (A') (A") (A") (A') (A')
                 (A") (A") (A') (A') (A') (A") (A') (A") (A') (A')
                 (A") (A") (A") (A") (A') (A') (A') (A') (A") (A")
                 (A") (A") (A') (A') (A") (A') (A") (A') (A') (A')
                 (A') (A") (A") (A') (A") (A") (A') (A') (A") (A")
                 (A') (A') (A') (A") (A") (A') (A") (A") (A') (A')
                 (A') (A") (A') (A') (A") (A') (A') (A') (A") (A')
                 (A') (A") (A") (A") (A") (A") (A") (A") (A') (A')
                 (A') (A') (A') (A') (A") (A") (A") (A') (A") (A")
                 (A') (A") (A') (A') (A") (A") (A') (A') (A') (A')
                 (A") (A") (A") (A") (A') (A')
       Virtual   (A') (A') (A") (A") (A") (A") (A') (A') (A") (A')
                 (A') (A') (A") (A') (A") (A') (A') (A') (A") (A")
                 (A') (A') (A") (A') (A") (A") (A') (A") (A') (A")
                 (A") (A') (A") (A') (A') (A") (A") (A') (A") (A')
                 (A') (A') (A') (A") (A') (A") (A") (A") (A") (A')
                 (A') (A') (A') (A') (A') (A') (A') (A") (A') (A")
                 (A") (A") (A") (A") (A') (A') (A") (A") (A') (A')
                 (A") (A') (A") (A') (A") (A') (A") (A") (A') (A")
                 (A') (A') (A') (A') (A") (A') (A") (A') (A') (A")
                 (A') (A') (A") (A') (A") (A") (A') (A") (A") (A')
                 (A") (A") (A') (A') (A") (A') (A') (A') (A") (A")
                 (A") (A") (A') (A") (A') (A') (A") (A") (A') (A')
                 (A") (A') (A') (A') (A") (A') (A') (A') (A") (A')
                 (A') (A") (A") (A') (A') (A') (A") (A') (A") (A")
                 (A') (A') (A") (A') (A") (A') (A") (A') (A') (A")
                 (A") (A') (A") (A") (A") (A") (A') (A') (A') (A")
                 (A') (A") (A') (A') (A") (A') (A") (A") (A') (A")
                 (A') (A") (A") (A') (A') (A') (A') (A') (A') (A")
                 (A') (A") (A") (A') (A") (A") (A') (A") (A") (A')
                 (A") (A") (A') (A") (A') (A') (A") (A") (A') (A')
                 (A') (A") (A') (A") (A') (A") (A') (A') (A") (A')
                 (A") (A') (A") (A') (A') (A") (A") (A') (A") (A')
                 (A") (A') (A') (A") (A") (A") (A') (A") (A') (A")
                 (A') (A') (A") (A') (A') (A") (A') (A") (A") (A')
                 (A") (A") (A') (A') (A') (A") (A') (A") (A') (A")
                 (A') (A') (A") (A") (A") (A') (A') (A") (A') (A")
                 (A") (A') (A") (A') (A') (A') (A") (A') (A') (A")
                 (A") (A') (A") (A") (A") (A') (A') (A") (A") (A')
                 (A') (A") (A') (A') (A") (A") (A') (A") (A') (A")
                 (A') (A') (A') (A") (A") (A") (A') (A") (A') (A')
                 (A") (A") (A") (A') (A") (A') (A") (A') (A') (A')
                 (A') (A") (A') (A') (A") (A") (A") (A') (A") (A")
                 (A') (A") (A') (A') (A') (A") (A') (A') (A") (A")
                 (A") (A") (A') (A") (A") (A') (A') (A') (A") (A')
                 (A") (A') (A') (A') (A") (A") (A') (A') (A') (A")
                 (A') (A") (A") (A") (A') (A') (A') (A') (A') (A')
                 (A") (A") (A') (A") (A') (A") (A") (A") (A") (A")
                 (A') (A") (A") (A') (A") (A') (A") (A') (A') (A')
                 (A") (A") (A') (A') (A") (A') (A') (A") (A') (A')
                 (A') (A') (A") (A") (A') (A') (A") (A") (A') (A")
                 (A') (A") (A") (A') (A") (A') (A') (A') (A") (A")
                 (A') (A') (A") (A') (A') (A") (A") (A") (A') (A')
                 (A') (A") (A') (A') (A") (A') (A') (A") (A') (A")
                 (A") (A") (A") (A') (A") (A') (A') (A") (A') (A")
                 (A') (A") (A") (A') (A") (A") (A') (A') (A") (A")
                 (A') (A') (A') (A") (A") (A') (A') (A") (A") (A')
                 (A") (A") (A') (A') (A') (A") (A') (A") (A') (A')
                 (A") (A") (A") (A') (A") (A') (A') (A") (A") (A')
                 (A") (A') (A") (A') (A') (A') (A") (A") (A') (A")
                 (A") (A") (A') (A") (A") (A") (A") (A") (A') (A')
                 (A") (A') (A') (A') (A") (A') (A') (A') (A") (A")
                 (A') (A') (A') (A') (A") (A") (A') (A") (A') (A")
                 (A") (A") (A') (A") (A') (A") (A') (A') (A') (A")
                 (A") (A') (A") (A") (A") (A') (A") (A') (A') (A')
                 (A") (A") (A') (A') (A") (A') (A") (A') (A") (A")
                 (A") (A') (A") (A') (A") (A') (A") (A') (A') (A')
                 (A") (A") (A') (A') (A') (A") (A') (A") (A") (A")
                 (A') (A') (A') (A') (A') (A") (A') (A") (A') (A')
                 (A") (A") (A") (A') (A') (A") (A') (A") (A") (A")
                 (A') (A') (A") (A") (A') (A") (A') (A") (A') (A')
                 (A") (A') (A") (A') (A') (A') (A") (A') (A") (A')
                 (A') (A") (A') (A") (A') (A') (A') (A") (A') (A")
                 (A") (A") (A') (A') (A') (A") (A") (A') (A") (A")
                 (A') (A") (A") (A') (A') (A') (A') (A") (A') (A")
                 (A') (A") (A") (A') (A") (A") (A') (A") (A') (A')
                 (A") (A') (A') (A") (A') (A') (A') (A") (A') (A")
                 (A") (A") (A') (A') (A") (A") (A') (A') (A') (A")
                 (A') (A") (A') (A") (A") (A') (A") (A") (A') (A')
                 (A') (A') (A") (A") (A') (A") (A') (A") (A") (A")
                 (A') (A') (A") (A') (A') (A') (A") (A') (A") (A")
                 (A') (A') (A") (A") (A') (A") (A') (A") (A') (A")
                 (A') (A") (A") (A") (A') (A') (A') (A') (A") (A")
                 (A') (A') (A") (A') (A") (A') (A') (A') (A") (A")
                 (A") (A') (A") (A') (A") (A') (A") (A') (A') (A")
                 (A') (A") (A') (A") (A') (A') (A") (A') (A') (A')
                 (A") (A') (A") (A') (A") (A") (A') (A') (A") (A")
                 (A") (A') (A") (A") (A') (A") (A') (A") (A') (A")
                 (A') (A') (A") (A") (A') (A') (A') (A') (A") (A")
                 (A") (A") (A') (A') (A") (A') (A") (A') (A') (A')
                 (A") (A") (A") (A") (A') (A') (A') (A") (A') (A")
                 (A') (A') (A") (A') (A") (A') (A") (A') (A") (A')
                 (A') (A") (A') (A")
 The electronic state is 1-A'.
 Alpha  occ. eigenvalues --  -10.19346 -10.19346 -10.19270 -10.19269 -10.19262
 Alpha  occ. eigenvalues --  -10.19261 -10.19169 -10.19169 -10.18410 -10.18409
 Alpha  occ. eigenvalues --  -10.18357 -10.18354 -10.18353 -10.18349 -10.18349
 Alpha  occ. eigenvalues --  -10.18343 -10.18312 -10.18312 -10.18303 -10.18303
 Alpha  occ. eigenvalues --  -10.18282 -10.18282 -10.18275 -10.18275 -10.18209
 Alpha  occ. eigenvalues --  -10.18209 -10.18187 -10.18187 -10.18098 -10.18098
 Alpha  occ. eigenvalues --  -10.17431 -10.17431 -10.17426 -10.17409 -10.17408
 Alpha  occ. eigenvalues --  -10.17392 -10.17369 -10.17369 -10.17359 -10.17359
 Alpha  occ. eigenvalues --  -10.17344 -10.17344 -10.17281 -10.17281  -0.89725
 Alpha  occ. eigenvalues --   -0.88819  -0.88241  -0.87360  -0.85921  -0.85051
 Alpha  occ. eigenvalues --   -0.82785  -0.81920  -0.80210  -0.79289  -0.78890
 Alpha  occ. eigenvalues --   -0.78694  -0.78028  -0.77801  -0.76367  -0.75484
 Alpha  occ. eigenvalues --   -0.74625  -0.73757  -0.73275  -0.72397  -0.69574
 Alpha  occ. eigenvalues --   -0.68686  -0.67715  -0.66846  -0.63104  -0.62735
 Alpha  occ. eigenvalues --   -0.62225  -0.61880  -0.61497  -0.60566  -0.60345
 Alpha  occ. eigenvalues --   -0.59673  -0.59435  -0.58788  -0.58057  -0.57195
 Alpha  occ. eigenvalues --   -0.53078  -0.52946  -0.52658  -0.52213  -0.52059
 Alpha  occ. eigenvalues --   -0.51802  -0.50026  -0.49139  -0.48875  -0.48032
 Alpha  occ. eigenvalues --   -0.47525  -0.46663  -0.46506  -0.45972  -0.45847
 Alpha  occ. eigenvalues --   -0.45559  -0.45055  -0.44976  -0.44293  -0.43550
 Alpha  occ. eigenvalues --   -0.43443  -0.42951  -0.42676  -0.42198  -0.42055
 Alpha  occ. eigenvalues --   -0.41939  -0.41759  -0.41268  -0.41071  -0.41056
 Alpha  occ. eigenvalues --   -0.40870  -0.40765  -0.40182  -0.39978  -0.39896
 Alpha  occ. eigenvalues --   -0.39080  -0.38561  -0.37687  -0.37105  -0.36695
 Alpha  occ. eigenvalues --   -0.36242  -0.35919  -0.35873  -0.35028  -0.34467
 Alpha  occ. eigenvalues --   -0.34180  -0.33594  -0.33444  -0.33300  -0.33286
 Alpha  occ. eigenvalues --   -0.32636  -0.32444  -0.31866  -0.31086  -0.30026
 Alpha  occ. eigenvalues --   -0.29155  -0.28764  -0.27926  -0.26998  -0.26120
 Alpha  occ. eigenvalues --   -0.24727  -0.23873  -0.22964  -0.22080  -0.18249
 Alpha  occ. eigenvalues --   -0.17339
 Alpha virt. eigenvalues --   -0.10147  -0.09242  -0.04859  -0.03967  -0.03129
 Alpha virt. eigenvalues --   -0.02254  -0.00608   0.00347   0.01670   0.01690
 Alpha virt. eigenvalues --    0.02082   0.02552   0.02858   0.03540   0.03759
 Alpha virt. eigenvalues --    0.03787   0.04277   0.05177   0.05384   0.05646
 Alpha virt. eigenvalues --    0.05810   0.06340   0.07052   0.07468   0.07708
 Alpha virt. eigenvalues --    0.07920   0.08747   0.08785   0.09062   0.09362
 Alpha virt. eigenvalues --    0.10140   0.10314   0.10747   0.10937   0.11189
 Alpha virt. eigenvalues --    0.11824   0.12542   0.12944   0.13235   0.13958
 Alpha virt. eigenvalues --    0.14293   0.14609   0.15583   0.15690   0.17620
 Alpha virt. eigenvalues --    0.18127   0.18352   0.18581   0.19461   0.19569
 Alpha virt. eigenvalues --    0.19749   0.19892   0.22436   0.22672   0.23433
 Alpha virt. eigenvalues --    0.23591   0.24152   0.24232   0.24986   0.25250
 Alpha virt. eigenvalues --    0.25757   0.26049   0.27153   0.27346   0.27697
 Alpha virt. eigenvalues --    0.27910   0.27992   0.28073   0.28671   0.28742
 Alpha virt. eigenvalues --    0.28768   0.29301   0.29582   0.29873   0.30112
 Alpha virt. eigenvalues --    0.30381   0.30791   0.31189   0.31263   0.31710
 Alpha virt. eigenvalues --    0.32560   0.34168   0.34334   0.34994   0.36136
 Alpha virt. eigenvalues --    0.36159   0.36723   0.37002   0.37092   0.37244
 Alpha virt. eigenvalues --    0.37367   0.37537   0.37698   0.37802   0.37926
 Alpha virt. eigenvalues --    0.38211   0.38403   0.38567   0.38836   0.39164
 Alpha virt. eigenvalues --    0.39248   0.39616   0.39618   0.39801   0.40139
 Alpha virt. eigenvalues --    0.40265   0.40525   0.40642   0.40883   0.41556
 Alpha virt. eigenvalues --    0.41876   0.42006   0.42026   0.42117   0.42272
 Alpha virt. eigenvalues --    0.42438   0.42481   0.42645   0.42818   0.43282
 Alpha virt. eigenvalues --    0.43481   0.43622   0.43978   0.44405   0.44497
 Alpha virt. eigenvalues --    0.44800   0.44892   0.45376   0.45526   0.45630
 Alpha virt. eigenvalues --    0.45741   0.45978   0.46063   0.46071   0.46289
 Alpha virt. eigenvalues --    0.46537   0.46941   0.47088   0.47114   0.47348
 Alpha virt. eigenvalues --    0.47501   0.47758   0.47761   0.48382   0.48592
 Alpha virt. eigenvalues --    0.48846   0.48991   0.49026   0.49187   0.49255
 Alpha virt. eigenvalues --    0.49669   0.49803   0.50075   0.50800   0.51180
 Alpha virt. eigenvalues --    0.51585   0.51820   0.52008   0.52156   0.52545
 Alpha virt. eigenvalues --    0.53547   0.53673   0.53957   0.54024   0.54299
 Alpha virt. eigenvalues --    0.55293   0.55837   0.56848   0.57447   0.57513
 Alpha virt. eigenvalues --    0.58685   0.58685   0.58950   0.59460   0.59934
 Alpha virt. eigenvalues --    0.60377   0.60632   0.60820   0.61274   0.61402
 Alpha virt. eigenvalues --    0.61485   0.61507   0.62085   0.62097   0.62176
 Alpha virt. eigenvalues --    0.62334   0.62708   0.62845   0.63426   0.63494
 Alpha virt. eigenvalues --    0.63975   0.64291   0.64383   0.64610   0.65264
 Alpha virt. eigenvalues --    0.65510   0.65820   0.65996   0.66022   0.66303
 Alpha virt. eigenvalues --    0.67234   0.67373   0.68192   0.69948   0.70252
 Alpha virt. eigenvalues --    0.70418   0.70719   0.71409   0.71431   0.71811
 Alpha virt. eigenvalues --    0.72010   0.72113   0.72600   0.72912   0.73395
 Alpha virt. eigenvalues --    0.73543   0.73932   0.74583   0.75350   0.75707
 Alpha virt. eigenvalues --    0.76287   0.76316   0.76818   0.76820   0.77226
 Alpha virt. eigenvalues --    0.78039   0.78584   0.78611   0.79159   0.79213
 Alpha virt. eigenvalues --    0.79360   0.79979   0.80134   0.80418   0.81056
 Alpha virt. eigenvalues --    0.81189   0.81406   0.81689   0.82751   0.82800
 Alpha virt. eigenvalues --    0.83496   0.83746   0.83950   0.84172   0.84646
 Alpha virt. eigenvalues --    0.84847   0.85334   0.86039   0.86169   0.88065
 Alpha virt. eigenvalues --    0.88697   0.89439   0.89448   0.89637   0.90571
 Alpha virt. eigenvalues --    0.90812   0.91390   0.91637   0.92602   0.92850
 Alpha virt. eigenvalues --    0.93084   0.94267   0.94298   0.95038   0.95677
 Alpha virt. eigenvalues --    0.95775   0.95964   0.96310   0.96896   0.97032
 Alpha virt. eigenvalues --    0.97549   0.97626   0.98186   0.98807   0.99052
 Alpha virt. eigenvalues --    0.99677   0.99800   1.00869   1.01632   1.02432
 Alpha virt. eigenvalues --    1.02918   1.02950   1.03044   1.03298   1.03633
 Alpha virt. eigenvalues --    1.04071   1.04227   1.05129   1.05223   1.05342
 Alpha virt. eigenvalues --    1.05635   1.05812   1.05929   1.05988   1.06074
 Alpha virt. eigenvalues --    1.06479   1.07139   1.07363   1.07549   1.07912
 Alpha virt. eigenvalues --    1.08062   1.08736   1.08930   1.09714   1.09817
 Alpha virt. eigenvalues --    1.09820   1.10544   1.10940   1.11728   1.12567
 Alpha virt. eigenvalues --    1.12975   1.13261   1.13579   1.13716   1.14157
 Alpha virt. eigenvalues --    1.14681   1.15025   1.15059   1.15099   1.15845
 Alpha virt. eigenvalues --    1.17073   1.17921   1.17952   1.19201   1.20312
 Alpha virt. eigenvalues --    1.20827   1.21257   1.22354   1.22918   1.23249
 Alpha virt. eigenvalues --    1.23810   1.25021   1.27876   1.28284   1.30081
 Alpha virt. eigenvalues --    1.30119   1.30732   1.32205   1.32454   1.33046
 Alpha virt. eigenvalues --    1.33461   1.34740   1.34857   1.35842   1.37785
 Alpha virt. eigenvalues --    1.38171   1.39419   1.39803   1.39922   1.39984
 Alpha virt. eigenvalues --    1.40436   1.40510   1.40589   1.41261   1.42923
 Alpha virt. eigenvalues --    1.43236   1.43607   1.43873   1.43998   1.45131
 Alpha virt. eigenvalues --    1.45388   1.45633   1.45913   1.46773   1.46801
 Alpha virt. eigenvalues --    1.47545   1.47768   1.48176   1.49009   1.49188
 Alpha virt. eigenvalues --    1.49305   1.49487   1.49818   1.49954   1.50014
 Alpha virt. eigenvalues --    1.50864   1.51032   1.51075   1.52396   1.52886
 Alpha virt. eigenvalues --    1.53186   1.53624   1.54069   1.54357   1.54442
 Alpha virt. eigenvalues --    1.54488   1.54746   1.54792   1.54839   1.55327
 Alpha virt. eigenvalues --    1.55635   1.56471   1.57378   1.57568   1.58104
 Alpha virt. eigenvalues --    1.58875   1.58932   1.59203   1.60141   1.60324
 Alpha virt. eigenvalues --    1.60549   1.60924   1.62412   1.62968   1.63331
 Alpha virt. eigenvalues --    1.64066   1.65291   1.65790   1.66342   1.67259
 Alpha virt. eigenvalues --    1.69349   1.69469   1.70002   1.70207   1.70307
 Alpha virt. eigenvalues --    1.70565   1.70815   1.71629   1.72207   1.72309
 Alpha virt. eigenvalues --    1.72770   1.72960   1.73119   1.73206   1.73529
 Alpha virt. eigenvalues --    1.73535   1.73579   1.73776   1.73875   1.74401
 Alpha virt. eigenvalues --    1.77170   1.78041   1.78438   1.79045   1.79283
 Alpha virt. eigenvalues --    1.79705   1.79785   1.80054   1.80277   1.81308
 Alpha virt. eigenvalues --    1.81381   1.81600   1.81949   1.82206   1.82446
 Alpha virt. eigenvalues --    1.82625   1.83756   1.84437   1.84510   1.84684
 Alpha virt. eigenvalues --    1.85403   1.86164   1.87155   1.87181   1.87202
 Alpha virt. eigenvalues --    1.87717   1.87947   1.88064   1.88102   1.88269
 Alpha virt. eigenvalues --    1.88621   1.88866   1.89063   1.89455   1.90840
 Alpha virt. eigenvalues --    1.91125   1.91375   1.91449   1.91990   1.92346
 Alpha virt. eigenvalues --    1.92472   1.92707   1.92769   1.92809   1.93138
 Alpha virt. eigenvalues --    1.93342   1.93746   1.93847   1.94310   1.94646
 Alpha virt. eigenvalues --    1.95085   1.95186   1.95347   1.95988   1.97323
 Alpha virt. eigenvalues --    1.97818   1.99522   1.99885   2.00393   2.00498
 Alpha virt. eigenvalues --    2.00635   2.01006   2.01451   2.02640   2.03119
 Alpha virt. eigenvalues --    2.03570   2.05460   2.06835   2.07948   2.08874
 Alpha virt. eigenvalues --    2.08984   2.09486   2.09730   2.09773   2.10090
 Alpha virt. eigenvalues --    2.10360   2.12004   2.12703   2.13911   2.14654
 Alpha virt. eigenvalues --    2.15409   2.16006   2.16214   2.16529   2.16885
 Alpha virt. eigenvalues --    2.17685   2.19564   2.20516   2.20699   2.21425
 Alpha virt. eigenvalues --    2.21529   2.22182   2.22359   2.23127   2.23187
 Alpha virt. eigenvalues --    2.24206   2.24354   2.25026   2.26221   2.26603
 Alpha virt. eigenvalues --    2.26919   2.27105   2.27442   2.27677   2.27751
 Alpha virt. eigenvalues --    2.28006   2.28638   2.29197   2.29849   2.30487
 Alpha virt. eigenvalues --    2.33229   2.34206   2.35475   2.36245   2.39020
 Alpha virt. eigenvalues --    2.39226   2.39876   2.39973   2.40733   2.41415
 Alpha virt. eigenvalues --    2.42501   2.42810   2.43227   2.43644   2.45495
 Alpha virt. eigenvalues --    2.45695   2.46302   2.46431   2.46572   2.47585
 Alpha virt. eigenvalues --    2.51355   2.52231   2.52255   2.53184   2.53282
 Alpha virt. eigenvalues --    2.53632   2.54286   2.54421   2.55282   2.55758
 Alpha virt. eigenvalues --    2.56397   2.57202   2.58441   2.58621   2.59204
 Alpha virt. eigenvalues --    2.59476   2.59539   2.60229   2.60323   2.60515
 Alpha virt. eigenvalues --    2.60609   2.61072   2.61450   2.61451   2.62034
 Alpha virt. eigenvalues --    2.62115   2.62565   2.62810   2.63462   2.64037
 Alpha virt. eigenvalues --    2.64037   2.64423   2.65400   2.65645   2.65740
 Alpha virt. eigenvalues --    2.66656   2.66807   2.66953   2.67340   2.67969
 Alpha virt. eigenvalues --    2.68004   2.68325   2.68760   2.68779   2.69101
 Alpha virt. eigenvalues --    2.69210   2.69334   2.69488   2.69718   2.69835
 Alpha virt. eigenvalues --    2.70213   2.70460   2.70957   2.71628   2.72576
 Alpha virt. eigenvalues --    2.73197   2.74073   2.74120   2.74820   2.75048
 Alpha virt. eigenvalues --    2.75192   2.76238   2.76308   2.76687   2.77132
 Alpha virt. eigenvalues --    2.77240   2.77565   2.77619   2.78501   2.78613
 Alpha virt. eigenvalues --    2.78817   2.79346   2.79794   2.80198   2.81049
 Alpha virt. eigenvalues --    2.81599   2.82674   2.83349   2.83678   2.85880
 Alpha virt. eigenvalues --    2.86119   2.86491   2.86561   2.87634   2.87825
 Alpha virt. eigenvalues --    2.88289   2.89009   2.89758   2.90677   2.91559
 Alpha virt. eigenvalues --    2.92297   2.92676   2.93339   2.93867   2.94122
 Alpha virt. eigenvalues --    2.95096   2.95284   2.95832   2.96539   2.97058
 Alpha virt. eigenvalues --    2.98910   2.99950   3.00265   3.02524   3.03592
 Alpha virt. eigenvalues --    3.04360   3.05987   3.06463   3.07611   3.08056
 Alpha virt. eigenvalues --    3.08131   3.08630   3.15718   3.15813   3.16291
 Alpha virt. eigenvalues --    3.16723   3.16800   3.17405   3.19675   3.19798
 Alpha virt. eigenvalues --    3.20500   3.20740   3.23292   3.24175   3.28820
 Alpha virt. eigenvalues --    3.29392   3.29863   3.30292   3.31455   3.32313
 Alpha virt. eigenvalues --    3.34810   3.35287   3.35511   3.35845   3.36072
 Alpha virt. eigenvalues --    3.36274   3.36493   3.36759   3.37729   3.38666
 Alpha virt. eigenvalues --    3.39629   3.40544   3.41032   3.42324   3.44788
 Alpha virt. eigenvalues --    3.45139   3.45564   3.46015   3.47786   3.48038
 Alpha virt. eigenvalues --    3.48807   3.49049   3.50190   3.50994   3.52818
 Alpha virt. eigenvalues --    3.53891   3.57139   3.58095   3.58459   3.59258
 Alpha virt. eigenvalues --    3.61355   3.62192   3.62412   3.62906   3.63306
 Alpha virt. eigenvalues --    3.63433   3.64768   3.65113   3.65666   3.66616
 Alpha virt. eigenvalues --    3.67175   3.67324   3.68555   3.68569   4.00102
 Alpha virt. eigenvalues --    4.00156   4.01141   4.01151   4.01655   4.01923
 Alpha virt. eigenvalues --    4.02421   4.02765   4.15817   4.16379   4.16888
 Alpha virt. eigenvalues --    4.17137   4.17486   4.18995   4.20961   4.21916
 Alpha virt. eigenvalues --    4.22141   4.22356   4.23131   4.23308   4.25164
 Alpha virt. eigenvalues --    4.26670   4.38162   4.39441   4.61894   4.63294
 Alpha virt. eigenvalues --    4.78800   4.79387   4.79785   4.80189   4.80351
 Alpha virt. eigenvalues --    4.81268   4.82200   4.82613   4.83418   4.83949
 Alpha virt. eigenvalues --   23.38839  23.40054  23.54257  23.55268  23.68873
 Alpha virt. eigenvalues --   23.69718  23.77024  23.78068  23.80172  23.80986
 Alpha virt. eigenvalues --   23.81227  23.82195  23.85786  23.86710  23.88759
 Alpha virt. eigenvalues --   23.88854  23.89661  23.89729  23.91884  23.92852
 Alpha virt. eigenvalues --   23.97179  23.97983  23.98167  23.98904  24.08669
 Alpha virt. eigenvalues --   24.09553  24.09606  24.10152  24.10470  24.11066
 Alpha virt. eigenvalues --   24.11851  24.12898  24.13404  24.13994  24.14454
 Alpha virt. eigenvalues --   24.15139  24.15421  24.15455  24.16255  24.16289
 Alpha virt. eigenvalues --   24.20097  24.20143  24.21051  24.21095
          Condensed to atoms (all electrons):
 Mulliken charges:
               1
     1  C   -0.046710
     2  C   -0.060719
     3  C   -0.068115
     4  C   -0.052444
     5  C   -0.089189
     6  C   -0.090877
     7  C   -0.036307
     8  C   -0.039802
     9  C   -0.010378
    10  C   -0.057339
    11  H    0.084009
    12  H    0.075829
    13  H    0.076887
    14  H    0.083881
    15  H    0.096234
    16  H    0.096396
    17  C   -0.039843
    18  C   -0.039802
    19  C   -0.014217
    20  C   -0.057339
    21  H    0.074489
    22  H    0.075537
    23  C   -0.036307
    24  C   -0.046710
    25  C   -0.010378
    26  C   -0.060719
    27  H    0.075829
    28  H    0.076887
    29  C   -0.068115
    30  C   -0.089189
    31  C   -0.052444
    32  C   -0.090877
    33  H    0.084009
    34  H    0.096396
    35  H    0.096234
    36  H    0.083881
    37  C   -0.042595
    38  C   -0.086593
    39  C   -0.059492
    40  C   -0.052862
    41  C   -0.089303
    42  C   -0.104792
    43  C   -0.023699
    44  C   -0.033975
    45  C   -0.013791
    46  C   -0.086815
    47  H    0.080151
    48  H    0.072335
    49  H    0.093798
    50  H    0.096441
    51  H    0.090453
    52  H    0.092709
    53  C   -0.027774
    54  C   -0.033975
    55  C   -0.017997
    56  C   -0.086815
    57  H    0.070927
    58  H    0.092222
    59  C   -0.023699
    60  C   -0.042595
    61  C   -0.013791
    62  C   -0.086593
    63  H    0.072335
    64  H    0.093798
    65  C   -0.059492
    66  C   -0.089303
    67  C   -0.052862
    68  C   -0.104792
    69  H    0.080151
    70  H    0.092709
    71  H    0.090453
    72  H    0.096441
 Sum of Mulliken charges =   0.00000
 Mulliken charges with hydrogens summed into heavy atoms:
               1
     1  C   -0.046710
     2  C   -0.060719
     3  C    0.015895
     4  C    0.031437
     5  C    0.007207
     6  C    0.005358
     7  C    0.039522
     8  C   -0.039802
     9  C    0.066509
    10  C   -0.057339
    17  C    0.034647
    18  C   -0.039802
    19  C    0.061320
    20  C   -0.057339
    23  C    0.039522
    24  C   -0.046710
    25  C    0.066509
    26  C   -0.060719
    29  C    0.015895
    30  C    0.007207
    31  C    0.031437
    32  C    0.005358
    37  C   -0.042595
    38  C   -0.086593
    39  C    0.020658
    40  C    0.043580
    41  C    0.003406
    42  C   -0.014338
    43  C    0.048636
    44  C   -0.033975
    45  C    0.080007
    46  C   -0.086815
    53  C    0.043153
    54  C   -0.033975
    55  C    0.074225
    56  C   -0.086815
    59  C    0.048636
    60  C   -0.042595
    61  C    0.080007
    62  C   -0.086593
    65  C    0.020658
    66  C    0.003406
    67  C    0.043580
    68  C   -0.014338
         Mulliken charges condensed to fragments:
      1      0.018679
      2     -0.018679
 Electronic spatial extent (au):  <R**2>=          28535.8178
 Charge=              0.0000 electrons
 Dipole moment (field-independent basis, Debye):
    X=             -0.7479    Y=             -0.7311    Z=              0.0000  Tot=              1.0459
 Quadrupole moment (field-independent basis, Debye-Ang):
   XX=           -246.3494   YY=           -248.0900   ZZ=           -218.8423
   XY=              0.5143   XZ=              0.0000   YZ=              0.0000
 Traceless Quadrupole moment (field-independent basis, Debye-Ang):
   XX=             -8.5889   YY=            -10.3294   ZZ=             18.9183
   XY=              0.5143   XZ=              0.0000   YZ=              0.0000
 Octapole moment (field-independent basis, Debye-Ang**2):
  XXX=           -101.2721  YYY=            202.6071  ZZZ=              0.0000  XYY=             24.8659
  XXY=            -77.5478  XXZ=              0.0000  XZZ=            -13.5658  YZZ=            -18.4257
  YYZ=              0.0000  XYZ=              0.0000
 Hexadecapole moment (field-independent basis, Debye-Ang**3):
 XXXX=          -3527.3413 YYYY=         -13169.0847 ZZZZ=         -20974.1791 XXXY=          -2585.9026
 XXXZ=              0.0000 YYYX=          -2598.2040 YYYZ=              0.0000 ZZZX=              0.0000
 ZZZY=              0.0000 XXYY=          -2864.8101 XXZZ=          -4502.9185 YYZZ=          -5937.5700
 XXYZ=              0.0000 YYXZ=              0.0000 ZZXY=           -760.0163
 N-N= 4.463725050402D+03 E-N=-1.285777245699D+04  KE= 1.686671953699D+03
 Symmetry A'   KE= 9.134094123274D+02
 Symmetry A"   KE= 7.732625413718D+02
 No NMR shielding tensors so no spin-rotation constants.
 Leave Link  601 at Wed Sep 27 16:39:40 2023, MaxMem=  3221225472 cpu:              52.0 elap:               1.4
 (Enter /home/center/opt/aarch64/apps/gaussian16/c01/g16/l122.exe)
 CPIOFr:  IOpCl= 0 IRwI=-1 IRwCP=  731 ICalc= -1 LCPTot=     1419224 Len1MO=     3708034 IndFrg=     1419224
 CPIOFr:  IOpCl= 0 IRwI=-1 IRwCP=  731 ICalc=  0 LCPTot=     1419224 Len1MO=     3708034 IndFrg=     5127258
 Counterpoise: doing calculation for fragment   1 using the basis set of the full-system, NewBq=T
 Leave Link  122 at Wed Sep 27 16:39:43 2023, MaxMem=  3221225472 cpu:               9.1 elap:               0.4
 (Enter /home/center/opt/aarch64/apps/gaussian16/c01/g16/l301.exe)
 Basis read from rwf:  (5D, 7F)
 No pseudopotential information found on rwf file.
 There are   528 symmetry adapted cartesian basis functions of A'  symmetry.
 There are   476 symmetry adapted cartesian basis functions of A"  symmetry.
 There are   504 symmetry adapted basis functions of A'  symmetry.
 There are   456 symmetry adapted basis functions of A"  symmetry.
   960 basis functions,  1632 primitive gaussians,  1004 cartesian basis functions
    73 alpha electrons       73 beta electrons
       nuclear repulsion energy      1494.3575061930 Hartrees.
 IExCor=  402 DFT=T Ex+Corr=B3LYP ExCW=0 ScaHFX=  0.200000
 ScaDFX=  0.800000  0.720000  1.000000  0.810000 ScalE2=  1.000000  1.000000
 IRadAn=      5 IRanWt=     -1 IRanGd=            0 ICorTp=0 IEmpDi=131
 NAtoms=   72 NActive=   72 NUniq=   40 SFac= 3.24D+00 NAtFMM=   60 NAOKFM=T Big=F
 Integral buffers will be    131072 words long.
 Raffenetti 2 integral format.
 Two-electron integral symmetry is turned on.
 R6Disp:  Grimme-D3 Dispersion energy=       -0.0303938888 Hartrees.
 Nuclear repulsion after empirical dispersion term =     1494.3271123042 Hartrees.
 No density basis found on file    718.
 Leave Link  301 at Wed Sep 27 16:39:45 2023, MaxMem=  3221225472 cpu:               3.0 elap:               0.1
 (Enter /home/center/opt/aarch64/apps/gaussian16/c01/g16/l302.exe)
 NPDir=0 NMtPBC=     1 NCelOv=     1 NCel=       1 NClECP=     1 NCelD=      1
         NCelK=      1 NCelE2=     1 NClLst=     1 CellRange=     0.0.
 One-electron integrals computed using PRISM.
 One-electron integral symmetry used in STVInt
 NBasis=   960 RedAO= T EigKep=  3.99D-05  NBF=   504   456
 NBsUse=   960 1.00D-06 EigRej= -1.00D+00 NBFU=   504   456
 Precomputing XC quadrature grid using
 IXCGrd= 4 IRadAn=           5 IRanWt=          -1 IRanGd=           0 AccXCQ= 0.00D+00.
 Generated NRdTot=       0 NPtTot=           0 NUsed=           0 NTot=          32
 NSgBfM=   987   987   987   987   987 MxSgAt=    72 MxSgA2=    72.
 Leave Link  302 at Wed Sep 27 16:39:49 2023, MaxMem=  3221225472 cpu:              46.2 elap:               1.6
 (Enter /home/center/opt/aarch64/apps/gaussian16/c01/g16/l303.exe)
 DipDrv:  MaxL=1.
 Leave Link  303 at Wed Sep 27 16:39:52 2023, MaxMem=  3221225472 cpu:              12.0 elap:               0.3
 (Enter /home/center/opt/aarch64/apps/gaussian16/c01/g16/l401.exe)
 ExpMin= 1.03D-01 ExpMax= 4.56D+03 ExpMxC= 6.82D+02 IAcc=3 IRadAn=         5 AccDes= 0.00D+00
 Harris functional with IExCor=  402 and IRadAn=       5 diagonalized for initial guess.
 HarFok:  IExCor=  402 AccDes= 0.00D+00 IRadAn=         5 IDoV= 1 UseB2=F ITyADJ=14
 ICtDFT=  3500011 ScaDFX=  1.000000  1.000000  1.000000  1.000000
 FoFCou: FMM=F IPFlag=           0 FMFlag=      100000 FMFlg1=        2000
         NFxFlg=           0 DoJE=T BraDBF=F KetDBF=T FulRan=T
         wScrn=  0.000000 ICntrl=       500 IOpCl=  0 I1Cent=   200000004 NGrid=           0
         NMat0=    1 NMatS0=      1 NMatT0=    0 NMatD0=    1 NMtDS0=    0 NMtDT0=    0
 Petite list used in FoFCou.
 Harris En= -847.065011328278    
 JPrj=0 DoOrth=F DoCkMO=F.
 Initial guess orbital symmetries:
       Occupied  (A") (A') (A') (A") (A") (A') (A") (A') (A') (A")
                 (A") (A') (A') (A') (A") (A') (A") (A') (A") (A')
                 (A') (A") (A') (A") (A') (A") (A') (A') (A") (A')
                 (A") (A") (A') (A') (A") (A") (A') (A") (A') (A')
                 (A') (A") (A") (A") (A') (A') (A") (A') (A') (A")
                 (A') (A") (A") (A') (A') (A") (A') (A") (A') (A")
                 (A") (A') (A') (A") (A') (A") (A') (A") (A') (A')
                 (A") (A") (A')
       Virtual   (A') (A") (A") (A') (A') (A") (A') (A") (A') (A")
                 (A') (A') (A") (A') (A") (A') (A") (A') (A') (A")
                 (A") (A') (A') (A") (A') (A") (A') (A') (A') (A")
                 (A') (A") (A') (A") (A") (A') (A') (A") (A") (A')
                 (A') (A") (A") (A') (A") (A') (A') (A") (A") (A')
                 (A') (A") (A") (A') (A') (A") (A') (A') (A") (A')
                 (A') (A") (A') (A") (A") (A') (A') (A") (A") (A')
                 (A') (A") (A") (A') (A') (A") (A') (A') (A') (A")
                 (A') (A") (A') (A") (A') (A') (A") (A") (A") (A')
                 (A") (A') (A") (A") (A') (A") (A") (A') (A') (A')
                 (A') (A') (A") (A") (A') (A') (A') (A") (A') (A")
                 (A') (A") (A') (A') (A") (A") (A") (A") (A') (A")
                 (A") (A') (A') (A") (A") (A') (A') (A') (A') (A")
                 (A') (A") (A') (A') (A") (A') (A') (A') (A") (A")
                 (A') (A") (A') (A") (A') (A") (A') (A") (A') (A")
                 (A') (A") (A") (A") (A') (A") (A') (A') (A') (A')
                 (A") (A') (A") (A') (A") (A") (A') (A') (A") (A')
                 (A") (A') (A") (A") (A") (A') (A") (A') (A') (A')
                 (A') (A") (A") (A') (A") (A") (A') (A") (A') (A")
                 (A') (A') (A") (A') (A') (A') (A") (A") (A') (A')
                 (A") (A") (A") (A") (A') (A") (A') (A") (A') (A')
                 (A') (A') (A") (A") (A') (A") (A') (A") (A") (A")
                 (A') (A') (A') (A') (A") (A') (A') (A") (A') (A")
                 (A") (A') (A') (A") (A') (A") (A") (A') (A") (A")
                 (A') (A") (A') (A') (A") (A') (A') (A") (A") (A")
                 (A") (A') (A') (A") (A') (A') (A') (A') (A") (A')
                 (A") (A") (A") (A') (A') (A') (A") (A") (A') (A")
                 (A') (A") (A') (A") (A') (A") (A') (A") (A') (A")
                 (A") (A') (A') (A') (A") (A") (A') (A") (A') (A")
                 (A') (A') (A") (A') (A") (A') (A') (A') (A') (A")
                 (A") (A') (A") (A") (A') (A') (A") (A") (A") (A')
                 (A") (A") (A') (A") (A') (A') (A') (A') (A") (A')
                 (A") (A') (A') (A") (A") (A') (A") (A') (A") (A')
                 (A") (A') (A') (A') (A") (A') (A") (A') (A') (A")
                 (A') (A") (A") (A') (A") (A") (A') (A") (A') (A')
                 (A') (A") (A") (A') (A") (A') (A") (A') (A') (A')
                 (A') (A") (A') (A") (A") (A") (A') (A") (A') (A")
                 (A') (A") (A') (A") (A') (A") (A") (A') (A") (A")
                 (A') (A') (A') (A") (A") (A') (A') (A') (A") (A')
                 (A") (A') (A") (A") (A') (A') (A") (A') (A") (A")
                 (A") (A') (A') (A") (A') (A") (A") (A') (A') (A")
                 (A') (A") (A') (A') (A") (A') (A") (A") (A') (A")
                 (A') (A') (A") (A') (A") (A") (A') (A") (A') (A")
                 (A') (A") (A') (A') (A') (A") (A") (A') (A") (A')
                 (A") (A') (A') (A') (A') (A") (A") (A") (A") (A")
                 (A') (A') (A') (A') (A') (A") (A') (A") (A") (A")
                 (A') (A") (A') (A") (A') (A") (A') (A") (A') (A')
                 (A") (A') (A") (A") (A') (A") (A") (A') (A') (A")
                 (A') (A") (A") (A') (A") (A') (A') (A") (A') (A")
                 (A") (A') (A') (A") (A') (A") (A') (A') (A") (A")
                 (A') (A") (A') (A") (A') (A") (A') (A") (A') (A")
                 (A') (A') (A') (A") (A") (A") (A") (A") (A') (A')
                 (A') (A') (A") (A") (A') (A") (A') (A') (A") (A')
                 (A') (A") (A") (A') (A') (A') (A") (A') (A') (A")
                 (A") (A") (A') (A') (A') (A") (A") (A') (A') (A")
                 (A") (A") (A') (A") (A') (A') (A') (A") (A') (A")
                 (A') (A") (A') (A") (A") (A') (A") (A") (A') (A")
                 (A') (A') (A') (A') (A") (A') (A') (A") (A") (A")
                 (A') (A') (A") (A") (A') (A') (A") (A") (A") (A")
                 (A') (A') (A') (A') (A') (A') (A") (A') (A") (A")
                 (A") (A') (A") (A") (A') (A') (A") (A') (A") (A')
                 (A') (A") (A') (A") (A') (A") (A') (A') (A") (A")
                 (A') (A') (A") (A") (A') (A") (A') (A") (A') (A")
                 (A") (A') (A") (A") (A") (A') (A') (A') (A') (A")
                 (A') (A") (A') (A') (A") (A") (A') (A") (A') (A")
                 (A') (A") (A') (A") (A') (A') (A") (A") (A") (A')
                 (A") (A") (A') (A') (A") (A') (A") (A") (A') (A')
                 (A') (A") (A") (A') (A') (A") (A') (A") (A') (A')
                 (A") (A') (A") (A') (A") (A') (A") (A') (A') (A")
                 (A') (A") (A') (A') (A") (A") (A") (A') (A') (A')
[...]
                 (A') (A") (A') (A') (A') (A") (A") (A") (A") (A')
                 (A') (A') (A") (A") (A') (A") (A') (A") (A') (A')
                 (A") (A") (A')
       Virtual   (A') (A") (A") (A') (A') (A") (A') (A') (A') (A")
                 (A") (A') (A") (A') (A") (A') (A") (A") (A') (A")
                 (A') (A') (A") (A') (A") (A') (A') (A') (A') (A")
                 (A") (A") (A") (A') (A') (A") (A') (A") (A') (A")
                 (A') (A') (A') (A") (A') (A") (A") (A') (A') (A")
                 (A") (A') (A') (A") (A') (A") (A") (A") (A') (A")
                 (A') (A') (A') (A') (A') (A") (A') (A') (A") (A")
                 (A") (A') (A') (A') (A") (A') (A") (A") (A") (A')
                 (A') (A") (A') (A") (A") (A') (A") (A') (A') (A')
                 (A') (A') (A") (A") (A") (A") (A') (A") (A') (A")
                 (A') (A') (A') (A") (A") (A') (A') (A") (A') (A")
                 (A') (A") (A") (A") (A') (A') (A") (A') (A') (A")
                 (A') (A") (A") (A') (A') (A") (A') (A") (A') (A")
                 (A") (A') (A') (A') (A') (A") (A") (A") (A') (A")
                 (A') (A") (A') (A") (A') (A') (A") (A") (A') (A")
                 (A') (A") (A') (A") (A') (A') (A") (A') (A") (A")
                 (A') (A") (A') (A') (A") (A") (A') (A") (A') (A")
                 (A') (A') (A") (A') (A') (A") (A") (A') (A') (A')
                 (A") (A') (A") (A") (A") (A") (A') (A") (A') (A')
                 (A") (A') (A") (A') (A') (A') (A") (A') (A") (A')
                 (A") (A") (A') (A') (A") (A") (A') (A') (A") (A')
                 (A') (A') (A') (A") (A") (A") (A") (A') (A') (A")
                 (A') (A") (A") (A') (A") (A') (A") (A') (A") (A')
                 (A") (A') (A') (A") (A') (A") (A") (A') (A') (A")
                 (A") (A') (A') (A") (A") (A') (A") (A") (A") (A')
                 (A') (A") (A') (A') (A") (A') (A') (A") (A') (A")
                 (A") (A') (A") (A') (A') (A") (A") (A") (A') (A')
                 (A") (A') (A') (A") (A") (A") (A') (A") (A') (A')
                 (A") (A') (A") (A') (A") (A') (A') (A') (A") (A')
                 (A") (A") (A') (A') (A") (A") (A') (A") (A') (A")
                 (A') (A') (A") (A") (A') (A') (A") (A') (A') (A')
                 (A") (A") (A') (A") (A') (A") (A') (A") (A') (A')
                 (A') (A") (A") (A") (A') (A") (A') (A') (A') (A")
                 (A") (A') (A") (A') (A') (A") (A') (A") (A") (A')
                 (A') (A") (A') (A") (A") (A') (A') (A") (A') (A")
                 (A') (A") (A') (A") (A') (A") (A") (A') (A') (A")
                 (A') (A") (A') (A') (A") (A") (A') (A") (A') (A')
                 (A") (A') (A") (A') (A') (A") (A') (A") (A') (A")
                 (A") (A') (A") (A') (A") (A') (A") (A') (A') (A")
                 (A") (A') (A") (A') (A') (A") (A") (A') (A') (A")
                 (A') (A") (A') (A") (A') (A') (A")
 The electronic state is 1-A'.
 Alpha  occ. eigenvalues --  -10.18931 -10.18930 -10.18896 -10.18895 -10.18848
 Alpha  occ. eigenvalues --  -10.18848 -10.18813 -10.18813 -10.17956 -10.17955
 Alpha  occ. eigenvalues --  -10.17920 -10.17920 -10.17919 -10.17919 -10.17875
 Alpha  occ. eigenvalues --  -10.17875 -10.17863 -10.17863 -10.17808 -10.17808
 Alpha  occ. eigenvalues --  -10.17781 -10.17781  -0.89340  -0.87865  -0.85549
 Alpha  occ. eigenvalues --   -0.82415  -0.79820  -0.78521  -0.78314  -0.75991
 Alpha  occ. eigenvalues --   -0.74255  -0.72901  -0.69196  -0.67344  -0.62728
 Alpha  occ. eigenvalues --   -0.62370  -0.61108  -0.59964  -0.59301  -0.57689
 Alpha  occ. eigenvalues --   -0.52709  -0.52573  -0.52293  -0.49654  -0.48513
 Alpha  occ. eigenvalues --   -0.47160  -0.46110  -0.45590  -0.45476  -0.43928
 Alpha  occ. eigenvalues --   -0.43182  -0.42578  -0.41808  -0.41572  -0.41386
 Alpha  occ. eigenvalues --   -0.40692  -0.40405  -0.39579  -0.38193  -0.36732
 Alpha  occ. eigenvalues --   -0.36341  -0.35550  -0.34094  -0.33809  -0.33058
 Alpha  occ. eigenvalues --   -0.32930  -0.31612  -0.29665  -0.28406  -0.26623
 Alpha  occ. eigenvalues --   -0.24364  -0.22582  -0.17855
 Alpha virt. eigenvalues --   -0.09755  -0.04464  -0.02747  -0.00147   0.02073
 Alpha virt. eigenvalues --    0.02370   0.03189   0.04746   0.04859   0.04871
 Alpha virt. eigenvalues --    0.06161   0.06575   0.07968   0.08162   0.08303
 Alpha virt. eigenvalues --    0.09607   0.10049   0.11524   0.11533   0.13796
 Alpha virt. eigenvalues --    0.14111   0.14670   0.18092   0.18194   0.18832
 Alpha virt. eigenvalues --    0.19391   0.22815   0.23002   0.24379   0.24942
 Alpha virt. eigenvalues --    0.25581   0.27528   0.27575   0.28012   0.28228
 Alpha virt. eigenvalues --    0.28947   0.29389   0.30158   0.30759   0.31175
 Alpha virt. eigenvalues --    0.32897   0.34528   0.36420   0.36484   0.37134
 Alpha virt. eigenvalues --    0.37503   0.37629   0.37651   0.38116   0.38643
 Alpha virt. eigenvalues --    0.39094   0.39439   0.39739   0.40236   0.40435
 Alpha virt. eigenvalues --    0.41918   0.41926   0.41940   0.42289   0.42318
 Alpha virt. eigenvalues --    0.42643   0.43748   0.44233   0.44835   0.45295
 Alpha virt. eigenvalues --    0.45683   0.45924   0.45953   0.46379   0.47165
 Alpha virt. eigenvalues --    0.47805   0.47809   0.47978   0.48073   0.48231
 Alpha virt. eigenvalues --    0.48568   0.49414   0.49572   0.51377   0.51846
 Alpha virt. eigenvalues --    0.52370   0.53118   0.53671   0.55998   0.57923
 Alpha virt. eigenvalues --    0.57955   0.59048   0.59201   0.60433   0.60585
 Alpha virt. eigenvalues --    0.60693   0.61101   0.61690   0.62105   0.62173
 Alpha virt. eigenvalues --    0.63432   0.63481   0.64458   0.64535   0.65533
 Alpha virt. eigenvalues --    0.66693   0.66910   0.67680   0.67724   0.70658
 Alpha virt. eigenvalues --    0.71305   0.71405   0.71494   0.72803   0.73989
 Alpha virt. eigenvalues --    0.75405   0.75894   0.76289   0.77801   0.77809
 Alpha virt. eigenvalues --    0.78943   0.79160   0.79723   0.81162   0.81509
 Alpha virt. eigenvalues --    0.82881   0.83001   0.84383   0.84585   0.84713
 Alpha virt. eigenvalues --    0.88087   0.89711   0.89765   0.91536   0.92083
 Alpha virt. eigenvalues --    0.92578   0.93749   0.95806   0.96107   0.96442
 Alpha virt. eigenvalues --    0.96590   0.96905   0.98547   1.00356   1.01118
 Alpha virt. eigenvalues --    1.02686   1.03027   1.03354   1.04405   1.05244
 Alpha virt. eigenvalues --    1.05439   1.05525   1.05950   1.07395   1.07547
 Alpha virt. eigenvalues --    1.07686   1.08438   1.10005   1.10036   1.12070
 Alpha virt. eigenvalues --    1.13223   1.13544   1.13650   1.14526   1.15341
 Alpha virt. eigenvalues --    1.17432   1.18332   1.19657   1.20432   1.23014
 Alpha virt. eigenvalues --    1.23618   1.27884   1.28234   1.30579   1.32076
 Alpha virt. eigenvalues --    1.32743   1.34942   1.37641   1.39236   1.39896
 Alpha virt. eigenvalues --    1.39942   1.40725   1.42751   1.43476   1.43554
 Alpha virt. eigenvalues --    1.45057   1.46086   1.47119   1.47538   1.48841
 Alpha virt. eigenvalues --    1.49280   1.49417   1.50258   1.50674   1.52268
 Alpha virt. eigenvalues --    1.52650   1.53402   1.54331   1.54372   1.54781
 Alpha virt. eigenvalues --    1.54807   1.57107   1.57715   1.58569   1.59882
 Alpha virt. eigenvalues --    1.60106   1.62692   1.63242   1.64856   1.66641
 Alpha virt. eigenvalues --    1.69292   1.69605   1.69709   1.70649   1.71804
 Alpha virt. eigenvalues --    1.72459   1.72619   1.73075   1.73096   1.73680
 Alpha virt. eigenvalues --    1.77494   1.78519   1.79157   1.79419   1.80511
 Alpha virt. eigenvalues --    1.81616   1.81887   1.82058   1.83581   1.84039
 Alpha virt. eigenvalues --    1.85487   1.87392   1.87456   1.87577   1.87728
 Alpha virt. eigenvalues --    1.88131   1.88613   1.90743   1.91387   1.92190
 Alpha virt. eigenvalues --    1.92193   1.92572   1.92670   1.93517   1.93938
 Alpha virt. eigenvalues --    1.94544   1.95483   1.97262   1.99429   2.00088
 Alpha virt. eigenvalues --    2.00602   2.01362   2.03019   2.05757   2.08293
 Alpha virt. eigenvalues --    2.09111   2.09256   2.09792   2.12192   2.14098
 Alpha virt. eigenvalues --    2.15528   2.15584   2.17200   2.19751   2.20833
 Alpha virt. eigenvalues --    2.21576   2.22525   2.23381   2.24503   2.26441
 Alpha virt. eigenvalues --    2.26972   2.27242   2.27719   2.28046   2.29391
 Alpha virt. eigenvalues --    2.33301   2.35725   2.39155   2.39384   2.40817
 Alpha virt. eigenvalues --    2.42649   2.43076   2.45776   2.45994   2.46870
 Alpha virt. eigenvalues --    2.51623   2.51954   2.53354   2.53485   2.55138
 Alpha virt. eigenvalues --    2.56159   2.58701   2.58838   2.59764   2.59776
 Alpha virt. eigenvalues --    2.60682   2.61147   2.61719   2.62222   2.63349
 Alpha virt. eigenvalues --    2.63999   2.64478   2.66054   2.66794   2.67121
 Alpha virt. eigenvalues --    2.67374   2.68356   2.68872   2.68876   2.69372
 Alpha virt. eigenvalues --    2.69557   2.69907   2.70083   2.70281   2.73482
 Alpha virt. eigenvalues --    2.74771   2.74836   2.76066   2.77101   2.77577
 Alpha virt. eigenvalues --    2.78232   2.78455   2.78850   2.80822   2.82359
 Alpha virt. eigenvalues --    2.85535   2.85993   2.86737   2.87294   2.90966
 Alpha virt. eigenvalues --    2.91783   2.92195   2.93676   2.95232   2.95887
 Alpha virt. eigenvalues --    2.99270   2.99858   3.03165   3.05604   3.06852
 Alpha virt. eigenvalues --    3.07371   3.15988   3.16029   3.16647   3.19843
 Alpha virt. eigenvalues --    3.20017   3.23601   3.29134   3.29680   3.31610
 Alpha virt. eigenvalues --    3.35095   3.35458   3.35677   3.35858   3.38023
 Alpha virt. eigenvalues --    3.39887   3.41413   3.44960   3.45362   3.47993
 Alpha virt. eigenvalues --    3.48278   3.50401   3.53073   3.57439   3.58649
 Alpha virt. eigenvalues --    3.61466   3.62620   3.63208   3.63698   3.65910
 Alpha virt. eigenvalues --    3.67534   3.67678   4.00384   4.00442   4.01859
 Alpha virt. eigenvalues --    4.02182   4.16133   4.16678   4.17360   4.21240
 Alpha virt. eigenvalues --    4.22396   4.22517   4.25488   4.38492   4.62290
 Alpha virt. eigenvalues --    4.79179   4.79740   4.80562   4.82562   4.83014
 Alpha virt. eigenvalues --   23.39176  23.54541  23.69085  23.77378  23.80419
 Alpha virt. eigenvalues --   23.81537  23.86099  23.89067  23.89154  23.92210
 Alpha virt. eigenvalues --   23.97563  23.98365  24.09049  24.09932  24.10529
 Alpha virt. eigenvalues --   24.12220  24.13779  24.14375  24.15775  24.15810
 Alpha virt. eigenvalues --   24.20452  24.20497
          Condensed to atoms (all electrons):
 Mulliken charges:
               1
     1  C    0.000000
     2  C    0.000000
     3  C    0.000000
     4  C    0.000000
     5  C    0.000000
     6  C    0.000000
     7  C    0.000000
     8  C    0.000000
     9  C    0.000000
    10  C    0.000000
    11  H    0.000000
    12  H    0.000000
    13  H    0.000000
    14  H    0.000000
    15  H    0.000000
    16  H    0.000000
    17  C    0.000000
    18  C    0.000000
    19  C    0.000000
    20  C    0.000000
    21  H    0.000000
    22  H    0.000000
    23  C    0.000000
    24  C    0.000000
    25  C    0.000000
    26  C    0.000000
    27  H    0.000000
    28  H    0.000000
    29  C    0.000000
    30  C    0.000000
    31  C    0.000000
    32  C    0.000000
    33  H    0.000000
    34  H    0.000000
    35  H    0.000000
    36  H    0.000000
    37  C   -0.059168
    38  C   -0.059168
    39  C   -0.055977
    40  C   -0.055977
    41  C   -0.092198
    42  C   -0.092198
    43  C   -0.016525
    44  C   -0.054498
    45  C   -0.016525
    46  C   -0.054498
    47  H    0.082122
    48  H    0.074853
    49  H    0.074853
    50  H    0.082122
    51  H    0.094847
    52  H    0.094847
    53  C   -0.020341
    54  C   -0.054498
    55  C   -0.020341
    56  C   -0.054498
    57  H    0.073428
    58  H    0.073428
    59  C   -0.016525
    60  C   -0.059168
    61  C   -0.016525
    62  C   -0.059168
    63  H    0.074853
    64  H    0.074853
    65  C   -0.055977
    66  C   -0.092198
    67  C   -0.055977
    68  C   -0.092198
    69  H    0.082122
    70  H    0.094847
    71  H    0.094847
    72  H    0.082122
 Sum of Mulliken charges =   0.00000
 Mulliken charges with hydrogens summed into heavy atoms:
               1
     1  C    0.000000
     2  C    0.000000
     3  C    0.000000
     4  C    0.000000
     5  C    0.000000
     6  C    0.000000
     7  C    0.000000
     8  C    0.000000
     9  C    0.000000
    10  C    0.000000
    17  C    0.000000
    18  C    0.000000
    19  C    0.000000
    20  C    0.000000
    23  C    0.000000
    24  C    0.000000
    25  C    0.000000
    26  C    0.000000
    29  C    0.000000
    30  C    0.000000
    31  C    0.000000
    32  C    0.000000
    37  C   -0.059168
    38  C   -0.059168
    39  C    0.026144
    40  C    0.026144
    41  C    0.002649
    42  C    0.002649
    43  C    0.058328
    44  C   -0.054498
    45  C    0.058328
    46  C   -0.054498
    53  C    0.053087
    54  C   -0.054498
    55  C    0.053087
    56  C   -0.054498
    59  C    0.058328
    60  C   -0.059168
    61  C    0.058328
    62  C   -0.059168
    65  C    0.026144
    66  C    0.002649
    67  C    0.026144
    68  C    0.002649
         Mulliken charges condensed to fragments:
      1      0.000000
      2      0.000000
 Electronic spatial extent (au):  <R**2>=          11937.6486
 Charge=              0.0000 electrons
 Dipole moment (field-independent basis, Debye):
    X=              0.0000    Y=              0.0000    Z=              0.0000  Tot=              0.0000
 Quadrupole moment (field-independent basis, Debye-Ang):
   XX=           -136.3921   YY=           -110.7480   ZZ=           -109.0115
   XY=              0.0000   XZ=              0.0000   YZ=              0.0000
 Traceless Quadrupole moment (field-independent basis, Debye-Ang):
   XX=            -17.6749   YY=              7.9692   ZZ=              9.7057
   XY=              0.0000   XZ=              0.0000   YZ=              0.0000
 Octapole moment (field-independent basis, Debye-Ang**2):
  XXX=            650.9953  YYY=            528.5971  ZZZ=              0.0000  XYY=            176.1990
  XXY=            216.9984  XXZ=              0.0000  XZZ=            173.4362  YZZ=            173.4362
  YYZ=              0.0000  XYZ=              0.0000
 Hexadecapole moment (field-independent basis, Debye-Ang**3):
 XXXX=          -2225.8582 YYYY=          -2798.7026 ZZZZ=         -10461.4324 XXXY=          -1035.7272
 XXXZ=              0.0000 YYYX=           -840.9928 YYYZ=              0.0000 ZZZX=              0.0000
 ZZZY=              0.0000 XXYY=           -881.9887 XXZZ=          -2483.8673 YYZZ=          -2245.1497
 XXYZ=              0.0000 YYXZ=              0.0000 ZZXY=           -275.9353
 N-N= 1.494327112162D+03 E-N=-4.953709175877D+03  KE= 8.433374905091D+02
 Symmetry A'   KE= 4.567052305451D+02
 Symmetry A"   KE= 3.866322599639D+02
 No NMR shielding tensors so no spin-rotation constants.
 Leave Link  601 at Wed Sep 27 16:57:17 2023, MaxMem=  3221225472 cpu:              18.3 elap:               0.5
 (Enter /home/center/opt/aarch64/apps/gaussian16/c01/g16/l122.exe)
 CPIOFr:  IOpCl= 0 IRwI=-1 IRwCP=  731 ICalc=  4 LCPTot=     1419224 Len1MO=     3708034 IndFrg=    19959394
 Restoring MOs from calculation   1 to rwf.
 CPIOFr:  IOpCl= 0 IRwI=-2 IRwCP=  731 ICalc=  0 LCPTot=     1419224 Len1MO=     3708034 IndFrg=     5127258
 Counterpoise corrected energy =   -1694.057239846281
                   BSSE energy =       0.004665616399
              sum of fragments =   -1694.039683044258
           complexation energy =     -13.94 kcal/mole (raw)
           complexation energy =     -11.02 kcal/mole (corrected)
 Leave Link  122 at Wed Sep 27 16:57:20 2023, MaxMem=  3221225472 cpu:               8.3 elap:               0.4
 (Enter /home/center/opt/aarch64/apps/gaussian16/c01/g16/l9999.exe)

 Test job not archived.
 1\1\GINC-FX0439\SP\RB3LYP\6-311G(d,p)\C44H28\Z40145W\27-Sep-2023\0\\#P
  TEST b3lyp/6-311G** EmpiricalDispersion=GD3 counterpoise=2\\pentacene
 _A1=0_A2=0_A3=45_p2\\0,1\C,0,-0.5039478476,0.5239478476,-3.6612755801\
 C,0,0.5239480325,-0.5039480325,-3.6612755629\C,0,-0.9861248463,1.00612
 48463,-4.9235927708\C,0,1.0061250889,-0.9861250889,-4.9235926697\C,0,-
 0.4963213507,0.5163213507,-6.096356521\C,0,0.5163216812,-0.4963216812,
 -6.0963564796\C,0,-0.9844684311,1.0044684311,-2.4533174875\C,0,-0.5044
 88426,0.524488426,-1.2140288145\C,0,1.0044685359,-0.9844685359,-2.4533
 173917\C,0,0.5244885437,-0.5044885437,-1.2140288362\H,0,-1.7533559667,
 1.7733559667,-4.9232600459\H,0,-1.7521866813,1.7721866813,-2.453928581
 5\H,0,1.7721859268,-1.7521859268,-2.4539284818\H,0,1.7733558421,-1.753
 3558421,-4.9232597785\H,0,0.8905568758,-0.8705568758,-7.0425276922\H,0
 ,-0.8705565046,0.8905565046,-7.042527775\C,0,-0.9848184961,1.004818496
 1,0.0099998782\C,0,-0.5044883957,0.5244883957,1.2340295553\C,0,1.00481
 85643,-0.9848185643,0.0099998696\C,0,0.5244885146,-0.5044885146,1.2340
 295261\H,0,-1.7524699697,1.7724699697,0.0099999205\H,0,1.772468921,-1.
 752468921,0.0099999641\C,0,-0.9844683048,1.0044683048,2.4733171385\C,0
 ,-0.5039477114,0.5239477114,3.681276331\C,0,1.0044684211,-0.9844684211
 ,2.4733170835\C,0,0.5239479079,-0.5039479079,3.6812763217\H,0,-1.75218
 65527,1.7721865527,2.4739285326\H,0,1.7721858092,-1.7521858092,2.47392
 83796\C,0,-0.9861245177,1.0061245177,4.9435920588\C,0,-0.4963209372,0.
 5163209372,6.116356633\C,0,1.0061247659,-0.9861247659,4.9435919377\C,0
 ,0.5163212637,-0.4963212637,6.1163566075\H,0,-1.7533556504,1.773355650
 4,4.9432601504\H,0,-0.8705567426,0.8905567426,7.0625274368\H,0,0.89055
 70967,-0.8705570967,7.0625272142\H,0,1.7733555414,-1.7533555414,4.9432
 599297\C,0,3.9960521524,0.5239478476,-3.6612755801\C,0,5.0239480325,-0
 .5039480325,-3.6612755629\C,0,3.5138751537,1.0061248463,-4.9235927708\
 C,0,5.5061250889,-0.9861250889,-4.9235926697\C,0,4.0036786493,0.516321
 3507,-6.096356521\C,0,5.0163216812,-0.4963216812,-6.0963564796\C,0,3.5
 155315689,1.0044684311,-2.4533174875\C,0,3.995511574,0.524488426,-1.21
 40288145\C,0,5.5044685359,-0.9844685359,-2.4533173917\C,0,5.0244885437
 ,-0.5044885437,-1.2140288362\H,0,2.7466440333,1.7733559667,-4.92326004
 59\H,0,2.7478133187,1.7721866813,-2.4539285815\H,0,6.2721859268,-1.752
 1859268,-2.4539284818\H,0,6.2733558421,-1.7533558421,-4.9232597785\H,0
 ,5.3905568758,-0.8705568758,-7.0425276922\H,0,3.6294434954,0.890556504
 6,-7.042527775\C,0,3.5151815039,1.0048184961,0.0099998782\C,0,3.995511
 6043,0.5244883957,1.2340295553\C,0,5.5048185643,-0.9848185643,0.009999
 8696\C,0,5.0244885146,-0.5044885146,1.2340295261\H,0,2.7475300303,1.77
 24699697,0.0099999205\H,0,6.272468921,-1.752468921,0.0099999641\C,0,3.
 5155316952,1.0044683048,2.4733171385\C,0,3.9960522886,0.5239477114,3.6
 81276331\C,0,5.5044684211,-0.9844684211,2.4733170835\C,0,5.0239479079,
 -0.5039479079,3.6812763217\H,0,2.7478134473,1.7721865527,2.4739285326\
 H,0,6.2721858092,-1.7521858092,2.4739283796\C,0,3.5138754823,1.0061245
 177,4.9435920588\C,0,4.0036790628,0.5163209372,6.116356633\C,0,5.50612
 47659,-0.9861247659,4.9435919377\C,0,5.0163212637,-0.4963212637,6.1163
 566075\H,0,2.7466443496,1.7733556504,4.9432601504\H,0,3.6294432574,0.8
 905567426,7.0625274368\H,0,5.3905570967,-0.8705570967,7.0625272142\H,0
 ,6.2733555414,-1.7533555414,4.9432599297\\Version=Fujitsu-Arm-G16RevC.
 01\State=1-A'\HF=-847.0198415\RMSD=3.181e-09\Dipole=-0.0000011,0.00000
 11,0.\Quadrupole=-9.2856804,-5.3126036,14.598284,-17.3543489,0.,0.\PG=
 CS [SG(C4H4),X(C40H24)]\\@


 SUPPORT THE RIGHT TO ARM BEARS!
 (ADD A CLAWS TO THE BILL OF RIGHTS)
 Job cpu time:       0 days  3 hours 52 minutes 58.2 seconds.
 Elapsed time:       0 days  0 hours  5 minutes 59.6 seconds.
 File lengths (MBytes):  RWF=    718 Int=      0 D2E=      0 Chk=    208 Scr=      1
 Normal termination of Gaussian 16 at Wed Sep 27 16:57:26 2023.
