 Entering Gaussian System, Link 0=g16
 Initial command:
 /home/center/opt/aarch64/apps/gaussian16/c01/g16/l1.exe "/data/tmp/Gtmp/1006967/Gau-48.inp" -scrdir="/data/tmp/Gtmp/1006967/"
 Entering Link 1 = /home/center/opt/aarch64/apps/gaussian16/c01/g16/l1.exe PID=        49.
  
 Copyright (c) 1988-2019, Gaussian, Inc.  All Rights Reserved.
  
 This is part of the Gaussian(R) 16 program.  It is based on
 the Gaussian(R) 09 system (copyright 2009, Gaussian, Inc.),
 the Gaussian(R) 03 system (copyright 2003, Gaussian, Inc.),
 the Gaussian(R) 98 system (copyright 1998, Gaussian, Inc.),
 the Gaussian(R) 94 system (copyright 1995, Gaussian, Inc.),
 the Gaussian 92(TM) system (copyright 1992, Gaussian, Inc.),
 the Gaussian 90(TM) system (copyright 1990, Gaussian, Inc.),
 the Gaussian 88(TM) system (copyright 1988, Gaussian, Inc.),
 the Gaussian 86(TM) system (copyright 1986, Carnegie Mellon
 University), and the Gaussian 82(TM) system (copyright 1983,
 Carnegie Mellon University). Gaussian is a federally registered
 trademark of Gaussian, Inc.
  
 This software contains proprietary and confidential information,
 including trade secrets, belonging to Gaussian, Inc.
  
 This software is provided under written license and may be
 used, copied, transmitted, or stored only in accord with that
 written license.
  
 The following legend is applicable only to US Government
 contracts under FAR:
  
                    RESTRICTED RIGHTS LEGEND
  
 Use, reproduction and disclosure by the US Government is
 subject to restrictions as set forth in subparagraphs (a)
 and (c) of the Commercial Computer Software - Restricted
 Rights clause in FAR 52.227-19.
  
 Gaussian, Inc.
 340 Quinnipiac St., Bldg. 40, Wallingford CT 06492
  
  
 ---------------------------------------------------------------
 Warning -- This program may not be used in any manner that
 competes with the business of Gaussian, Inc. or will provide
 assistance to any competitor of Gaussian, Inc.  The licensee
 of this program is prohibited from giving any competitor of
 Gaussian, Inc. access to this program.  By using this program,
 the user acknowledges that Gaussian, Inc. is engaged in the
 business of creating and licensing software in the field of
 computational chemistry and represents and warrants to the
 licensee that it is not a competitor of Gaussian, Inc. and that
 it will not use this program in any manner prohibited above.
 ---------------------------------------------------------------
  

 Cite this work as:
 Gaussian 16, Revision C.01,
 M. J. Frisch, G. W. Trucks, H. B. Schlegel, G. E. Scuseria, 
 M. A. Robb, J. R. Cheeseman, G. Scalmani, V. Barone, 
 G. A. Petersson, H. Nakatsuji, X. Li, M. Caricato, A. V. Marenich, 
 J. Bloino, B. G. Janesko, R. Gomperts, B. Mennucci, H. P. Hratchian, 
 J. V. Ortiz, A. F. Izmaylov, J. L. Sonnenberg, D. Williams-Young, 
 F. Ding, F. Lipparini, F. Egidi, J. Goings, B. Peng, A. Petrone, 
 T. Henderson, D. Ranasinghe, V. G. Zakrzewski, J. Gao, N. Rega, 
 G. Zheng, W. Liang, M. Hada, M. Ehara, K. Toyota, R. Fukuda, 
 J. Hasegawa, M. Ishida, T. Nakajima, Y. Honda, O. Kitao, H. Nakai, 
 T. Vreven, K. Throssell, J. A. Montgomery, Jr., J. E. Peralta, 
 F. Ogliaro, M. J. Bearpark, J. J. Heyd, E. N. Brothers, K. N. Kudin, 
 V. N. Staroverov, T. A. Keith, R. Kobayashi, J. Normand, 
 K. Raghavachari, A. P. Rendell, J. C. Burant, S. S. Iyengar, 
 J. Tomasi, M. Cossi, J. M. Millam, M. Klene, C. Adamo, R. Cammi, 
 J. W. Ochterski, R. L. Martin, K. Morokuma, O. Farkas, 
 J. B. Foresman, and D. J. Fox, Gaussian, Inc., Wallingford CT, 2019.
 
 ************************************************
 Gaussian 16:  Fujitsu-Arm-G16RevC.01  3-Jul-2019
                   27-Sep-2023 
 ************************************************
 %mem=24GB
 %nproc=42
 Will use up to   42 processors via shared memory.
 -------------------------------------------------------------
 #P TEST b3lyp/6-311G** EmpiricalDispersion=GD3 counterpoise=2
 -------------------------------------------------------------
 1/38=1,62=2,172=1/1;
 2/12=2,17=6,18=5,40=1/2;
 1/38=1,53=2,62=2,63=1/22;
 3/5=4,6=6,7=101,11=2,25=1,30=1,74=-5,124=31/1,2,3;
 4//1;
 5/5=2,38=5/2;
 6/7=2,8=2,9=2,10=2,28=1/1;
 1/53=2,62=2,63=1/22;
 3/5=7,6=11,7=101,11=2,25=1,30=1,74=-5,82=7,124=31/1,2,3;
 4//1;
 5/5=2,38=5/2;
 6/7=2,8=2,9=2,10=2,28=1/1;
 1/53=2,62=2,63=1/22(-4);
 99/5=1,9=1/99;
 Leave Link    1 at Wed Sep 27 16:57:01 2023, MaxMem=  3221225472 cpu:               6.4 elap:               0.2
 (Enter /home/center/opt/aarch64/apps/gaussian16/c01/g16/l101.exe)
 ----------------------------
 pentacene_A1=0_A2=0_A3=45_t1
 ----------------------------
 Symbolic Z-matrix:
 Charge =  0 Multiplicity = 1 in supermolecule
 Charge =  0 Multiplicity = 1 in fragment      1.
 Charge =  0 Multiplicity = 1 in fragment      2.
 C(Fragment=1)        -0.50395   0.52395  -3.66128 
 C(Fragment=1)         0.52395  -0.50395  -3.66128 
 C(Fragment=1)        -0.98612   1.00612  -4.92359 
 C(Fragment=1)         1.00613  -0.98613  -4.92359 
 C(Fragment=1)        -0.49632   0.51632  -6.09636 
 C(Fragment=1)         0.51632  -0.49632  -6.09636 
 C(Fragment=1)        -0.98447   1.00447  -2.45332 
 C(Fragment=1)        -0.50449   0.52449  -1.21403 
 C(Fragment=1)         1.00447  -0.98447  -2.45332 
 C(Fragment=1)         0.52449  -0.50449  -1.21403 
 H(Fragment=1)        -1.75336   1.77336  -4.92326 
 H(Fragment=1)        -1.75219   1.77219  -2.45393 
 H(Fragment=1)         1.77219  -1.75219  -2.45393 
 H(Fragment=1)         1.77336  -1.75336  -4.92326 
 H(Fragment=1)         0.89056  -0.87056  -7.04253 
 H(Fragment=1)        -0.87056   0.89056  -7.04253 
 C(Fragment=1)        -0.98482   1.00482   0.01 
 C(Fragment=1)        -0.50449   0.52449   1.23403 
 C(Fragment=1)         1.00482  -0.98482   0.01 
 C(Fragment=1)         0.52449  -0.50449   1.23403 
 H(Fragment=1)        -1.75247   1.77247   0.01 
 H(Fragment=1)         1.77247  -1.75247   0.01 
 C(Fragment=1)        -0.98447   1.00447   2.47332 
 C(Fragment=1)        -0.50395   0.52395   3.68128 
 C(Fragment=1)         1.00447  -0.98447   2.47332 
 C(Fragment=1)         0.52395  -0.50395   3.68128 
 H(Fragment=1)        -1.75219   1.77219   2.47393 
 H(Fragment=1)         1.77219  -1.75219   2.47393 
 C(Fragment=1)        -0.98612   1.00612   4.94359 
 C(Fragment=1)        -0.49632   0.51632   6.11636 
 C(Fragment=1)         1.00612  -0.98612   4.94359 
 C(Fragment=1)         0.51632  -0.49632   6.11636 
 H(Fragment=1)        -1.75336   1.77336   4.94326 
 H(Fragment=1)        -0.87056   0.89056   7.06253 
 H(Fragment=1)         0.89056  -0.87056   7.06253 
 H(Fragment=1)         1.77336  -1.75336   4.94326 
 C(Fragment=2)         4.27395   4.02395  -3.66128 
 C(Fragment=2)         3.24605   2.99605  -3.66128 
 C(Fragment=2)         4.75612   4.50612  -4.92359 
 C(Fragment=2)         2.76387   2.51387  -4.92359 
 C(Fragment=2)         4.26632   4.01632  -6.09636 
 C(Fragment=2)         3.25368   3.00368  -6.09636 
 C(Fragment=2)         4.75447   4.50447  -2.45332 
 C(Fragment=2)         4.27449   4.02449  -1.21403 
 C(Fragment=2)         2.76553   2.51553  -2.45332 
 C(Fragment=2)         3.24551   2.99551  -1.21403 
 H(Fragment=2)         5.52336   5.27336  -4.92326 
 H(Fragment=2)         5.52219   5.27219  -2.45393 
 H(Fragment=2)         1.99781   1.74781  -2.45393 
 H(Fragment=2)         1.99664   1.74664  -4.92326 
 H(Fragment=2)         2.87944   2.62944  -7.04253 
 H(Fragment=2)         4.64056   4.39056  -7.04253 
 C(Fragment=2)         4.75482   4.50482   0.01 
 C(Fragment=2)         4.27449   4.02449   1.23403 
 C(Fragment=2)         2.76518   2.51518   0.01 
 C(Fragment=2)         3.24551   2.99551   1.23403 
 H(Fragment=2)         5.52247   5.27247   0.01 
 H(Fragment=2)         1.99753   1.74753   0.01 
 C(Fragment=2)         4.75447   4.50447   2.47332 
 C(Fragment=2)         4.27395   4.02395   3.68128 
 C(Fragment=2)         2.76553   2.51553   2.47332 
 C(Fragment=2)         3.24605   2.99605   3.68128 
 H(Fragment=2)         5.52219   5.27219   2.47393 
 H(Fragment=2)         1.99781   1.74781   2.47393 
 C(Fragment=2)         4.75612   4.50612   4.94359 
 C(Fragment=2)         4.26632   4.01632   6.11636 
 C(Fragment=2)         2.76388   2.51388   4.94359 
 C(Fragment=2)         3.25368   3.00368   6.11636 
 H(Fragment=2)         5.52336   5.27336   4.94326 
 H(Fragment=2)         4.64056   4.39056   7.06253 
 H(Fragment=2)         2.87944   2.62944   7.06253 
 H(Fragment=2)         1.99664   1.74664   4.94326 
 
 ITRead=  0  0  0  0  0  0  0  0  0  0  0  0  0  0  0  0  0  0  0  0
 ITRead=  0  0  0  0  0  0  0  0  0  0  0  0  0  0  0  0  0  0  0  0
 ITRead=  0  0  0  0  0  0  0  0  0  0  0  0  0  0  0  0  0  0  0  0
 ITRead=  0  0  0  0  0  0  0  0  0  0  0  0
 MicOpt= -1 -1 -1 -1 -1 -1 -1 -1 -1 -1 -1 -1 -1 -1 -1 -1 -1 -1 -1 -1
 MicOpt= -1 -1 -1 -1 -1 -1 -1 -1 -1 -1 -1 -1 -1 -1 -1 -1 -1 -1 -1 -1
 MicOpt= -1 -1 -1 -1 -1 -1 -1 -1 -1 -1 -1 -1 -1 -1 -1 -1 -1 -1 -1 -1
 MicOpt= -1 -1 -1 -1 -1 -1 -1 -1 -1 -1 -1 -1
 NAtoms=     72 NQM=       72 NQMF=       0 NMMI=      0 NMMIF=      0
                NMic=       0 NMicF=      0.
                    Isotopes and Nuclear Properties:
 (Nuclear quadrupole moments (NQMom) in fm**2, nuclear magnetic moments (NMagM)
  in nuclear magnetons)

  Atom         1           2           3           4           5           6           7           8           9          10
 IAtWgt=          12          12          12          12          12          12          12          12          12          12
 AtmWgt=  12.0000000  12.0000000  12.0000000  12.0000000  12.0000000  12.0000000  12.0000000  12.0000000  12.0000000  12.0000000
 NucSpn=           0           0           0           0           0           0           0           0           0           0
 AtZEff=   0.0000000   0.0000000   0.0000000   0.0000000   0.0000000   0.0000000   0.0000000   0.0000000   0.0000000   0.0000000
 NQMom=    0.0000000   0.0000000   0.0000000   0.0000000   0.0000000   0.0000000   0.0000000   0.0000000   0.0000000   0.0000000
 NMagM=    0.0000000   0.0000000   0.0000000   0.0000000   0.0000000   0.0000000   0.0000000   0.0000000   0.0000000   0.0000000
 AtZNuc=   6.0000000   6.0000000   6.0000000   6.0000000   6.0000000   6.0000000   6.0000000   6.0000000   6.0000000   6.0000000

  Atom        11          12          13          14          15          16          17          18          19          20
 IAtWgt=           1           1           1           1           1           1          12          12          12          12
 AtmWgt=   1.0078250   1.0078250   1.0078250   1.0078250   1.0078250   1.0078250  12.0000000  12.0000000  12.0000000  12.0000000
 NucSpn=           1           1           1           1           1           1           0           0           0           0
 AtZEff=   0.0000000   0.0000000   0.0000000   0.0000000   0.0000000   0.0000000   0.0000000   0.0000000   0.0000000   0.0000000
 NQMom=    0.0000000   0.0000000   0.0000000   0.0000000   0.0000000   0.0000000   0.0000000   0.0000000   0.0000000   0.0000000
 NMagM=    2.7928460   2.7928460   2.7928460   2.7928460   2.7928460   2.7928460   0.0000000   0.0000000   0.0000000   0.0000000
 AtZNuc=   1.0000000   1.0000000   1.0000000   1.0000000   1.0000000   1.0000000   6.0000000   6.0000000   6.0000000   6.0000000

  Atom        21          22          23          24          25          26          27          28          29          30
 IAtWgt=           1           1          12          12          12          12           1           1          12          12
 AtmWgt=   1.0078250   1.0078250  12.0000000  12.0000000  12.0000000  12.0000000   1.0078250   1.0078250  12.0000000  12.0000000
 NucSpn=           1           1           0           0           0           0           1           1           0           0
 AtZEff=   0.0000000   0.0000000   0.0000000   0.0000000   0.0000000   0.0000000   0.0000000   0.0000000   0.0000000   0.0000000
 NQMom=    0.0000000   0.0000000   0.0000000   0.0000000   0.0000000   0.0000000   0.0000000   0.0000000   0.0000000   0.0000000
 NMagM=    2.7928460   2.7928460   0.0000000   0.0000000   0.0000000   0.0000000   2.7928460   2.7928460   0.0000000   0.0000000
 AtZNuc=   1.0000000   1.0000000   6.0000000   6.0000000   6.0000000   6.0000000   1.0000000   1.0000000   6.0000000   6.0000000

  Atom        31          32          33          34          35          36          37          38          39          40
 IAtWgt=          12          12           1           1           1           1          12          12          12          12
 AtmWgt=  12.0000000  12.0000000   1.0078250   1.0078250   1.0078250   1.0078250  12.0000000  12.0000000  12.0000000  12.0000000
 NucSpn=           0           0           1           1           1           1           0           0           0           0
 AtZEff=   0.0000000   0.0000000   0.0000000   0.0000000   0.0000000   0.0000000   0.0000000   0.0000000   0.0000000   0.0000000
 NQMom=    0.0000000   0.0000000   0.0000000   0.0000000   0.0000000   0.0000000   0.0000000   0.0000000   0.0000000   0.0000000
 NMagM=    0.0000000   0.0000000   2.7928460   2.7928460   2.7928460   2.7928460   0.0000000   0.0000000   0.0000000   0.0000000
 AtZNuc=   6.0000000   6.0000000   1.0000000   1.0000000   1.0000000   1.0000000   6.0000000   6.0000000   6.0000000   6.0000000

  Atom        41          42          43          44          45          46          47          48          49          50
 IAtWgt=          12          12          12          12          12          12           1           1           1           1
 AtmWgt=  12.0000000  12.0000000  12.0000000  12.0000000  12.0000000  12.0000000   1.0078250   1.0078250   1.0078250   1.0078250
 NucSpn=           0           0           0           0           0           0           1           1           1           1
 AtZEff=   0.0000000   0.0000000   0.0000000   0.0000000   0.0000000   0.0000000   0.0000000   0.0000000   0.0000000   0.0000000
 NQMom=    0.0000000   0.0000000   0.0000000   0.0000000   0.0000000   0.0000000   0.0000000   0.0000000   0.0000000   0.0000000
 NMagM=    0.0000000   0.0000000   0.0000000   0.0000000   0.0000000   0.0000000   2.7928460   2.7928460   2.7928460   2.7928460
 AtZNuc=   6.0000000   6.0000000   6.0000000   6.0000000   6.0000000   6.0000000   1.0000000   1.0000000   1.0000000   1.0000000

  Atom        51          52          53          54          55          56          57          58          59          60
 IAtWgt=           1           1          12          12          12          12           1           1          12          12
 AtmWgt=   1.0078250   1.0078250  12.0000000  12.0000000  12.0000000  12.0000000   1.0078250   1.0078250  12.0000000  12.0000000
 NucSpn=           1           1           0           0           0           0           1           1           0           0
 AtZEff=   0.0000000   0.0000000   0.0000000   0.0000000   0.0000000   0.0000000   0.0000000   0.0000000   0.0000000   0.0000000
 NQMom=    0.0000000   0.0000000   0.0000000   0.0000000   0.0000000   0.0000000   0.0000000   0.0000000   0.0000000   0.0000000
 NMagM=    2.7928460   2.7928460   0.0000000   0.0000000   0.0000000   0.0000000   2.7928460   2.7928460   0.0000000   0.0000000
 AtZNuc=   1.0000000   1.0000000   6.0000000   6.0000000   6.0000000   6.0000000   1.0000000   1.0000000   6.0000000   6.0000000

  Atom        61          62          63          64          65          66          67          68          69          70
 IAtWgt=          12          12           1           1          12          12          12          12           1           1
 AtmWgt=  12.0000000  12.0000000   1.0078250   1.0078250  12.0000000  12.0000000  12.0000000  12.0000000   1.0078250   1.0078250
 NucSpn=           0           0           1           1           0           0           0           0           1           1
 AtZEff=   0.0000000   0.0000000   0.0000000   0.0000000   0.0000000   0.0000000   0.0000000   0.0000000   0.0000000   0.0000000
 NQMom=    0.0000000   0.0000000   0.0000000   0.0000000   0.0000000   0.0000000   0.0000000   0.0000000   0.0000000   0.0000000
 NMagM=    0.0000000   0.0000000   2.7928460   2.7928460   0.0000000   0.0000000   0.0000000   0.0000000   2.7928460   2.7928460
 AtZNuc=   6.0000000   6.0000000   1.0000000   1.0000000   6.0000000   6.0000000   6.0000000   6.0000000   1.0000000   1.0000000

  Atom        71          72
 IAtWgt=           1           1
 AtmWgt=   1.0078250   1.0078250
 NucSpn=           1           1
 AtZEff=   0.0000000   0.0000000
 NQMom=    0.0000000   0.0000000
 NMagM=    2.7928460   2.7928460
 AtZNuc=   1.0000000   1.0000000
 Leave Link  101 at Wed Sep 27 16:57:03 2023, MaxMem=  3221225472 cpu:               2.5 elap:               0.1
 (Enter /home/center/opt/aarch64/apps/gaussian16/c01/g16/l202.exe)
 Stoichiometry    C44H28
 Framework group  CS[SG(C4H4),X(C40H24)]
 Deg. of freedom   109
 Full point group                 CS      NOp   2
 Largest Abelian subgroup         CS      NOp   2
 Largest concise Abelian subgroup CS      NOp   2
                         Standard orientation:                         
 ---------------------------------------------------------------------
 Center     Atomic      Atomic             Coordinates (Angstroms)
 Number     Number       Type             X           Y           Z
 ---------------------------------------------------------------------
      1          6           0        0.815220   -2.563262    3.671276
      2          6           0       -0.638444   -2.563262    3.671276
      3          6           0        1.497122   -2.563262    4.933593
      4          6           0       -1.320345   -2.563262    4.933593
      5          6           0        0.804435   -2.563262    6.106357
      6          6           0       -0.627659   -2.563262    6.106357
      7          6           0        1.494779   -2.563262    2.463318
      8          6           0        0.815985   -2.563262    1.224029
      9          6           0       -1.318002   -2.563262    2.463317
     10          6           0       -0.639208   -2.563262    1.224029
     11          1           0        2.582150   -2.563262    4.933260
     12          1           0        2.580497   -2.563262    2.463929
     13          1           0       -2.403719   -2.563262    2.463929
     14          1           0       -2.405373   -2.563262    4.933260
     15          1           0       -1.156907   -2.563262    7.052528
     16          1           0        1.333683   -2.563262    7.052528
     17          6           0        1.495274   -2.563262    0.000000
     18          6           0        0.815985   -2.563262   -1.224029
     19          6           0       -1.318498   -2.563262    0.000000
     20          6           0       -0.639208   -2.563262   -1.224029
     21          1           0        2.580897   -2.563262    0.000000
     22          1           0       -2.404119   -2.563262    0.000000
     23          6           0        1.494779   -2.563262   -2.463318
     24          6           0        0.815220   -2.563262   -3.671276
     25          6           0       -1.318002   -2.563262   -2.463317
     26          6           0       -0.638444   -2.563262   -3.671276
     27          1           0        2.580497   -2.563262   -2.463929
     28          1           0       -2.403719   -2.563262   -2.463929
     29          6           0        1.497122   -2.563262   -4.933593
     30          6           0        0.804435   -2.563262   -6.106357
     31          6           0       -1.320345   -2.563262   -4.933593
     32          6           0       -0.627659   -2.563262   -6.106357
     33          1           0        2.582150   -2.563262   -4.933260
     34          1           0        1.333683   -2.563262   -7.052528
     35          1           0       -1.156907   -2.563262   -7.052528
     36          1           0       -2.405373   -2.563262   -4.933260
     37          6           0       -0.088388    3.290094    3.671276
     38          6           0       -0.088388    1.836430    3.671276
     39          6           0       -0.088388    3.971995    4.933593
     40          6           0       -0.088388    1.154529    4.933593
     41          6           0       -0.088388    3.279309    6.106357
     42          6           0       -0.088388    1.847215    6.106357
     43          6           0       -0.088388    3.969653    2.463318
     44          6           0       -0.088388    3.290859    1.224029
     45          6           0       -0.088388    1.156871    2.463317
     46          6           0       -0.088388    1.835665    1.224029
     47          1           0       -0.088388    5.057024    4.933260
     48          1           0       -0.088388    5.055370    2.463929
     49          1           0       -0.088388    0.071155    2.463929
     50          1           0       -0.088388    0.069500    4.933260
     51          1           0       -0.088388    1.317967    7.052528
     52          1           0       -0.088388    3.808557    7.052528
     53          6           0       -0.088388    3.970148    0.000000
     54          6           0       -0.088388    3.290859   -1.224029
     55          6           0       -0.088388    1.156376    0.000000
     56          6           0       -0.088388    1.835665   -1.224029
     57          1           0       -0.088388    5.055771    0.000000
     58          1           0       -0.088388    0.070755    0.000000
     59          6           0       -0.088388    3.969653   -2.463318
     60          6           0       -0.088388    3.290094   -3.671276
     61          6           0       -0.088388    1.156871   -2.463317
     62          6           0       -0.088388    1.836430   -3.671276
     63          1           0       -0.088388    5.055370   -2.463929
     64          1           0       -0.088388    0.071155   -2.463929
     65          6           0       -0.088388    3.971995   -4.933593
     66          6           0       -0.088388    3.279309   -6.106357
     67          6           0       -0.088388    1.154529   -4.933593
     68          6           0       -0.088388    1.847215   -6.106357
     69          1           0       -0.088388    5.057024   -4.933260
     70          1           0       -0.088388    3.808557   -7.052528
     71          1           0       -0.088388    1.317967   -7.052528
     72          1           0       -0.088388    0.069500   -4.933260
 ---------------------------------------------------------------------
 Rotational constants (GHZ):           0.1142667           0.0563744           0.0400345
 Leave Link  202 at Wed Sep 27 16:57:05 2023, MaxMem=  3221225472 cpu:               0.6 elap:               0.0
 (Enter /home/center/opt/aarch64/apps/gaussian16/c01/g16/l122.exe)
 Counterpoise: doing full-system calculation.
 Leave Link  122 at Wed Sep 27 16:57:07 2023, MaxMem=  3221225472 cpu:               0.2 elap:               0.0
 (Enter /home/center/opt/aarch64/apps/gaussian16/c01/g16/l301.exe)
 Standard basis: 6-311G(d,p) (5D, 7F)
 Ernie: Thresh=  0.10000D-02 Tol=  0.10000D-05 Strict=F.
 There are   528 symmetry adapted cartesian basis functions of A'  symmetry.
 There are   476 symmetry adapted cartesian basis functions of A"  symmetry.
 There are   504 symmetry adapted basis functions of A'  symmetry.
 There are   456 symmetry adapted basis functions of A"  symmetry.
   960 basis functions,  1632 primitive gaussians,  1004 cartesian basis functions
   146 alpha electrons      146 beta electrons
       nuclear repulsion energy      4667.7565711459 Hartrees.
 IExCor=  402 DFT=T Ex+Corr=B3LYP ExCW=0 ScaHFX=  0.200000
 ScaDFX=  0.800000  0.720000  1.000000  0.810000 ScalE2=  1.000000  1.000000
 IRadAn=      5 IRanWt=     -1 IRanGd=            0 ICorTp=0 IEmpDi=131
 NAtoms=   72 NActive=   72 NUniq=   40 SFac= 3.24D+00 NAtFMM=   60 NAOKFM=T Big=F
 Integral buffers will be    131072 words long.
 Raffenetti 2 integral format.
 Two-electron integral symmetry is turned on.
 R6Disp:  Grimme-D3 Dispersion energy=       -0.0849288930 Hartrees.
 Nuclear repulsion after empirical dispersion term =     4667.6716422529 Hartrees.
 Leave Link  301 at Wed Sep 27 16:57:10 2023, MaxMem=  3221225472 cpu:               1.2 elap:               0.1
 (Enter /home/center/opt/aarch64/apps/gaussian16/c01/g16/l302.exe)
 NPDir=0 NMtPBC=     1 NCelOv=     1 NCel=       1 NClECP=     1 NCelD=      1
         NCelK=      1 NCelE2=     1 NClLst=     1 CellRange=     0.0.
 One-electron integrals computed using PRISM.
 One-electron integral symmetry used in STVInt
 NBasis=   960 RedAO= T EigKep=  3.79D-05  NBF=   504   456
 NBsUse=   960 1.00D-06 EigRej= -1.00D+00 NBFU=   504   456
 Precomputing XC quadrature grid using
 IXCGrd= 4 IRadAn=           5 IRanWt=          -1 IRanGd=           0 AccXCQ= 0.00D+00.
 Generated NRdTot=       0 NPtTot=           0 NUsed=           0 NTot=          32
 NSgBfM=   991   991   991   991   991 MxSgAt=    72 MxSgA2=    72.
 Leave Link  302 at Wed Sep 27 16:57:14 2023, MaxMem=  3221225472 cpu:              64.7 elap:               2.0
 (Enter /home/center/opt/aarch64/apps/gaussian16/c01/g16/l303.exe)
 DipDrv:  MaxL=1.
 Leave Link  303 at Wed Sep 27 16:57:17 2023, MaxMem=  3221225472 cpu:              13.7 elap:               0.4
 (Enter /home/center/opt/aarch64/apps/gaussian16/c01/g16/l401.exe)
 ExpMin= 1.03D-01 ExpMax= 4.56D+03 ExpMxC= 6.82D+02 IAcc=3 IRadAn=         5 AccDes= 0.00D+00
 Harris functional with IExCor=  402 and IRadAn=       5 diagonalized for initial guess.
 HarFok:  IExCor=  402 AccDes= 0.00D+00 IRadAn=         5 IDoV= 1 UseB2=F ITyADJ=14
 ICtDFT=  3500011 ScaDFX=  1.000000  1.000000  1.000000  1.000000
 FoFCou: FMM=F IPFlag=           0 FMFlag=      100000 FMFlg1=        2000
         NFxFlg=           0 DoJE=T BraDBF=F KetDBF=T FulRan=T
         wScrn=  0.000000 ICntrl=       500 IOpCl=  0 I1Cent=   200000004 NGrid=           0
         NMat0=    1 NMatS0=      1 NMatT0=    0 NMatD0=    1 NMtDS0=    0 NMtDT0=    0
 Petite list used in FoFCou.
 Harris En= -1694.14022870421    
 JPrj=0 DoOrth=F DoCkMO=F.
 Initial guess orbital symmetries:
       Occupied  (A") (A') (A") (A') (A') (A") (A') (A") (A") (A')
                 (A") (A') (A") (A') (A") (A') (A") (A') (A") (A')
                 (A") (A') (A") (A') (A') (A') (A') (A') (A") (A')
                 (A") (A") (A') (A') (A") (A') (A") (A') (A") (A')
                 (A') (A") (A') (A") (A') (A') (A") (A") (A') (A')
                 (A") (A") (A') (A') (A') (A') (A") (A") (A') (A')
                 (A") (A") (A") (A") (A') (A') (A') (A') (A") (A")
                 (A") (A") (A') (A') (A") (A") (A') (A') (A') (A')
                 (A') (A') (A") (A") (A") (A") (A') (A") (A") (A')
                 (A') (A') (A") (A") (A') (A') (A') (A') (A") (A")
                 (A') (A') (A") (A") (A") (A") (A') (A') (A') (A')
                 (A") (A") (A') (A') (A") (A") (A') (A') (A") (A")
                 (A") (A") (A') (A') (A') (A') (A") (A") (A') (A')
                 (A") (A") (A') (A') (A") (A") (A') (A') (A') (A')
                 (A") (A") (A") (A") (A') (A')
       Virtual   (A') (A') (A") (A") (A") (A") (A') (A') (A') (A')
                 (A") (A") (A') (A') (A") (A") (A') (A") (A') (A')
                 (A') (A') (A") (A') (A') (A") (A") (A') (A") (A")
                 (A') (A') (A") (A") (A') (A') (A") (A") (A") (A')
                 (A') (A') (A") (A') (A') (A") (A") (A') (A') (A')
                 (A') (A") (A') (A") (A') (A') (A") (A") (A') (A')
                 (A") (A") (A") (A") (A') (A') (A") (A') (A") (A")
                 (A') (A") (A') (A') (A") (A') (A") (A") (A') (A")
                 (A') (A') (A') (A') (A") (A') (A") (A') (A') (A")
                 (A") (A') (A") (A') (A") (A") (A") (A') (A") (A')
                 (A') (A') (A") (A') (A") (A') (A") (A") (A') (A')
                 (A') (A') (A") (A') (A") (A') (A") (A") (A') (A')
                 (A") (A') (A") (A') (A") (A') (A") (A') (A') (A")
                 (A") (A') (A") (A') (A") (A") (A') (A") (A') (A')
                 (A") (A') (A") (A') (A") (A') (A') (A") (A') (A')
                 (A') (A') (A") (A") (A') (A") (A") (A') (A") (A")
                 (A") (A') (A') (A') (A") (A") (A') (A') (A") (A')
                 (A') (A") (A') (A") (A') (A") (A') (A") (A') (A')
                 (A") (A') (A") (A") (A') (A") (A') (A') (A') (A")
                 (A') (A") (A") (A') (A') (A') (A") (A') (A") (A")
                 (A') (A") (A") (A') (A') (A') (A") (A") (A') (A')
                 (A') (A") (A") (A') (A") (A") (A') (A") (A") (A')
                 (A') (A") (A") (A') (A") (A') (A") (A') (A') (A')
                 (A') (A') (A") (A') (A") (A") (A') (A") (A") (A')
                 (A") (A') (A") (A') (A') (A') (A") (A") (A') (A")
                 (A') (A") (A") (A') (A") (A') (A") (A') (A') (A')
                 (A") (A") (A") (A') (A') (A") (A") (A') (A") (A')
                 (A") (A") (A') (A') (A") (A') (A") (A") (A') (A')
                 (A') (A") (A') (A") (A') (A") (A") (A") (A') (A')
                 (A') (A") (A') (A") (A') (A") (A") (A") (A') (A')
                 (A") (A") (A') (A') (A') (A') (A') (A") (A") (A')
                 (A") (A") (A") (A') (A") (A') (A') (A') (A") (A')
                 (A") (A') (A") (A') (A") (A') (A") (A') (A") (A')
                 (A") (A") (A') (A') (A") (A') (A") (A") (A') (A")
                 (A') (A') (A") (A') (A') (A") (A') (A") (A") (A')
                 (A') (A") (A') (A') (A") (A') (A') (A") (A') (A")
                 (A') (A') (A') (A") (A') (A") (A") (A") (A") (A")
                 (A') (A") (A") (A') (A") (A") (A') (A') (A') (A")
                 (A') (A') (A") (A') (A") (A') (A') (A') (A') (A")
                 (A") (A') (A') (A") (A') (A") (A') (A") (A") (A')
                 (A") (A') (A") (A') (A") (A') (A") (A") (A') (A')
                 (A') (A') (A') (A") (A') (A') (A") (A") (A') (A")
                 (A") (A') (A') (A") (A') (A") (A') (A') (A") (A')
                 (A") (A") (A') (A") (A') (A") (A') (A") (A") (A")
                 (A') (A") (A") (A') (A') (A') (A") (A') (A") (A")
                 (A') (A') (A') (A') (A") (A") (A") (A") (A') (A")
                 (A') (A') (A") (A') (A') (A") (A") (A') (A') (A")
                 (A") (A') (A") (A') (A') (A") (A") (A') (A") (A')
                 (A") (A') (A') (A') (A") (A") (A") (A') (A") (A')
                 (A") (A") (A') (A") (A") (A") (A') (A") (A') (A')
                 (A") (A') (A") (A') (A") (A') (A') (A') (A") (A")
                 (A') (A') (A') (A') (A") (A") (A") (A') (A") (A')
                 (A") (A') (A") (A") (A') (A') (A") (A') (A") (A')
                 (A') (A') (A") (A') (A") (A") (A") (A') (A") (A')
                 (A") (A") (A') (A') (A') (A") (A") (A') (A") (A")
                 (A") (A') (A') (A") (A') (A") (A') (A") (A') (A')
                 (A") (A') (A') (A") (A") (A') (A') (A") (A') (A")
                 (A") (A") (A') (A') (A') (A") (A') (A") (A") (A')
                 (A") (A') (A') (A') (A') (A") (A') (A') (A") (A')
                 (A') (A") (A") (A') (A") (A") (A') (A") (A') (A")
                 (A") (A') (A') (A') (A") (A') (A") (A") (A') (A')
                 (A') (A") (A') (A") (A') (A') (A") (A") (A') (A")
                 (A") (A") (A') (A') (A') (A") (A') (A") (A") (A')
                 (A') (A") (A') (A") (A') (A') (A') (A") (A') (A")
                 (A') (A") (A') (A") (A") (A') (A") (A") (A") (A')
                 (A') (A') (A') (A") (A') (A') (A") (A') (A") (A')
                 (A') (A") (A") (A") (A') (A") (A') (A') (A') (A")
                 (A") (A') (A") (A') (A") (A') (A") (A") (A') (A')
                 (A") (A') (A') (A") (A') (A") (A') (A") (A") (A")
                 (A') (A") (A') (A') (A') (A") (A") (A') (A") (A')
                 (A') (A") (A") (A') (A") (A') (A') (A") (A") (A')
                 (A") (A") (A') (A") (A') (A') (A') (A') (A") (A")
                 (A') (A') (A") (A") (A') (A') (A") (A') (A') (A")
                 (A') (A") (A") (A') (A") (A') (A") (A') (A') (A")
                 (A') (A") (A') (A") (A') (A") (A') (A') (A') (A')
                 (A") (A') (A") (A') (A") (A") (A') (A') (A") (A")
                 (A") (A') (A") (A') (A") (A") (A') (A") (A') (A")
                 (A') (A') (A") (A") (A') (A') (A') (A') (A") (A")
                 (A") (A") (A') (A') (A") (A') (A") (A') (A') (A')
                 (A") (A") (A") (A") (A') (A') (A') (A') (A") (A")
                 (A') (A') (A") (A") (A') (A') (A") (A') (A") (A')
                 (A') (A") (A') (A")
 The electronic state of the initial guess is 1-A'.
 Leave Link  401 at Wed Sep 27 16:57:22 2023, MaxMem=  3221225472 cpu:             105.2 elap:               2.6
 (Enter /home/center/opt/aarch64/apps/gaussian16/c01/g16/l502.exe)
 Integral symmetry usage will be decided dynamically.
 Closed shell SCF:
 Using DIIS extrapolation, IDIIS=  1040.
 NGot=  3221225472 LenX=  3219153746 LenY=  3218144726
 Requested convergence on RMS density matrix=1.00D-08 within 128 cycles.
 Requested convergence on MAX density matrix=1.00D-06.
 Requested convergence on             energy=1.00D-06.
 No special actions if energy rises.
 Fock matrices will be formed incrementally for  20 cycles.
 Integral accuracy reduced to 1.0D-05 until final iterations.

 Cycle   1  Pass 0  IDiag  1:
 FoFJK:  IHMeth= 1 ICntrl=       0 DoSepK=F KAlg= 0 I1Cent=           0 FoldK=F
 IRaf= 560000000 NMat=       1 IRICut=       1 DoRegI=T DoRafI=F ISym2E= 1 IDoP0=0 IntGTp=1.
 FoFCou: FMM=F IPFlag=           0 FMFlag=      100000 FMFlg1=        2000
         NFxFlg=           0 DoJE=F BraDBF=F KetDBF=F FulRan=T
         wScrn=  0.000000 ICntrl=         0 IOpCl=  0 I1Cent=           0 NGrid=           0
         NMat0=    1 NMatS0=      1 NMatT0=    0 NMatD0=    1 NMtDS0=    0 NMtDT0=    0
 Petite list used in FoFCou.
 E= -1693.17958780549    
 DIIS: error= 4.70D-02 at cycle   1 NSaved=   1.
 NSaved= 1 IEnMin= 1 EnMin= -1693.17958780549     IErMin= 1 ErrMin= 4.70D-02
 ErrMax= 4.70D-02  0.00D+00 EMaxC= 1.00D-01 BMatC= 8.97D-01 BMatP= 8.97D-01
 IDIUse=3 WtCom= 5.30D-01 WtEn= 4.70D-01
 Coeff-Com:  0.100D+01
 Coeff-En:   0.100D+01
 Coeff:      0.100D+01
 Gap=     0.063 Goal=   None    Shift=    0.000
 GapD=    0.063 DampG=0.500 DampE=0.500 DampFc=0.2500 IDamp=-1.
 Damping current iteration by 2.50D-01
 RMSDP=1.71D-03 MaxDP=8.40D-02              OVMax= 1.54D-01

 Cycle   2  Pass 0  IDiag  1:
 RMSU=  4.14D-04    CP:  9.82D-01
 E= -1693.48743387232     Delta-E=       -0.307846066829 Rises=F Damp=T
 DIIS: error= 2.76D-02 at cycle   2 NSaved=   2.
 NSaved= 2 IEnMin= 2 EnMin= -1693.48743387232     IErMin= 2 ErrMin= 2.76D-02
 ErrMax= 2.76D-02  0.00D+00 EMaxC= 1.00D-01 BMatC= 2.99D-01 BMatP= 8.97D-01
 IDIUse=3 WtCom= 7.24D-01 WtEn= 2.76D-01
 Coeff-Com: -0.122D+01 0.222D+01
 Coeff-En:   0.000D+00 0.100D+01
 Coeff:     -0.881D+00 0.188D+01
 Gap=     0.061 Goal=   None    Shift=    0.000
 RMSDP=6.81D-04 MaxDP=3.40D-02 DE=-3.08D-01 OVMax= 1.05D-01

 Cycle   3  Pass 0  IDiag  1:
 RMSU=  4.21D-04    CP:  9.57D-01  2.24D+00
 E= -1694.05078444749     Delta-E=       -0.563350575168 Rises=F Damp=F
 DIIS: error= 4.70D-03 at cycle   3 NSaved=   3.
 NSaved= 3 IEnMin= 3 EnMin= -1694.05078444749     IErMin= 3 ErrMin= 4.70D-03
 ErrMax= 4.70D-03  0.00D+00 EMaxC= 1.00D-01 BMatC= 1.18D-02 BMatP= 2.99D-01
 IDIUse=3 WtCom= 9.53D-01 WtEn= 4.70D-02
 Coeff-Com: -0.231D+00 0.489D+00 0.742D+00
 Coeff-En:   0.000D+00 0.000D+00 0.100D+01
 Coeff:     -0.220D+00 0.466D+00 0.754D+00
 Gap=     0.067 Goal=   None    Shift=    0.000
 RMSDP=2.46D-04 MaxDP=1.57D-02 DE=-5.63D-01 OVMax= 1.23D-01

 Cycle   4  Pass 0  IDiag  1:
 RMSU=  2.07D-04    CP:  9.58D-01  2.12D+00  7.07D-01
 E= -1694.04475493301     Delta-E=        0.006029514482 Rises=F Damp=F
 DIIS: error= 7.80D-03 at cycle   4 NSaved=   4.
 NSaved= 4 IEnMin= 3 EnMin= -1694.05078444749     IErMin= 3 ErrMin= 4.70D-03
 ErrMax= 7.80D-03  0.00D+00 EMaxC= 1.00D-01 BMatC= 1.53D-02 BMatP= 1.18D-02
 IDIUse=3 WtCom= 1.02D-01 WtEn= 8.98D-01
 Coeff-Com: -0.254D-01 0.924D-01 0.542D+00 0.391D+00
 Coeff-En:   0.000D+00 0.000D+00 0.580D+00 0.420D+00
 Coeff:     -0.258D-02 0.940D-02 0.577D+00 0.417D+00
 Gap=     0.063 Goal=   None    Shift=    0.000
 RMSDP=1.54D-04 MaxDP=1.11D-02 DE= 6.03D-03 OVMax= 1.03D-01

 Cycle   5  Pass 0  IDiag  1:
 RMSU=  7.52D-05    CP:  9.58D-01  2.10D+00  7.97D-01  3.76D-01
 E= -1694.06213059268     Delta-E=       -0.017375659676 Rises=F Damp=F
 DIIS: error= 2.47D-03 at cycle   5 NSaved=   5.
 NSaved= 5 IEnMin= 5 EnMin= -1694.06213059268     IErMin= 5 ErrMin= 2.47D-03
 ErrMax= 2.47D-03  0.00D+00 EMaxC= 1.00D-01 BMatC= 1.19D-03 BMatP= 1.18D-02
 IDIUse=3 WtCom= 9.75D-01 WtEn= 2.47D-02
 Coeff-Com: -0.164D-01 0.354D-01 0.252D+00 0.237D+00 0.492D+00
 Coeff-En:   0.000D+00 0.000D+00 0.000D+00 0.276D-01 0.972D+00
 Coeff:     -0.160D-01 0.345D-01 0.246D+00 0.232D+00 0.504D+00
 Gap=     0.063 Goal=   None    Shift=    0.000
 RMSDP=4.94D-05 MaxDP=3.86D-03 DE=-1.74D-02 OVMax= 3.50D-02

 Cycle   6  Pass 0  IDiag  1:
 RMSU=  2.80D-05    CP:  9.58D-01  2.13D+00  8.01D-01  4.75D-01  5.69D-01
 E= -1694.06311903453     Delta-E=       -0.000988441847 Rises=F Damp=F
 DIIS: error= 1.27D-03 at cycle   6 NSaved=   6.
 NSaved= 6 IEnMin= 6 EnMin= -1694.06311903453     IErMin= 6 ErrMin= 1.27D-03
 ErrMax= 1.27D-03  0.00D+00 EMaxC= 1.00D-01 BMatC= 3.04D-04 BMatP= 1.19D-03
 IDIUse=3 WtCom= 9.87D-01 WtEn= 1.27D-02
 Coeff-Com: -0.856D-02 0.126D-01 0.106D+00 0.115D+00 0.376D+00 0.399D+00
 Coeff-En:   0.000D+00 0.000D+00 0.000D+00 0.000D+00 0.229D+00 0.771D+00
 Coeff:     -0.845D-02 0.125D-01 0.105D+00 0.114D+00 0.374D+00 0.404D+00
 Gap=     0.063 Goal=   None    Shift=    0.000
 RMSDP=2.28D-05 MaxDP=1.71D-03 DE=-9.88D-04 OVMax= 1.38D-02

 Cycle   7  Pass 0  IDiag  1:
 RMSU=  8.01D-06    CP:  9.58D-01  2.13D+00  8.06D-01  4.55D-01  6.45D-01
                    CP:  2.86D-01
 E= -1694.06346789696     Delta-E=       -0.000348862434 Rises=F Damp=F
 DIIS: error= 3.42D-04 at cycle   7 NSaved=   7.
 NSaved= 7 IEnMin= 7 EnMin= -1694.06346789696     IErMin= 7 ErrMin= 3.42D-04
 ErrMax= 3.42D-04  0.00D+00 EMaxC= 1.00D-01 BMatC= 2.07D-05 BMatP= 3.04D-04
 IDIUse=3 WtCom= 9.97D-01 WtEn= 3.42D-03
 Coeff-Com: -0.358D-02 0.447D-02 0.534D-01 0.594D-01 0.213D+00 0.274D+00
 Coeff-Com:  0.399D+00
 Coeff-En:   0.000D+00 0.000D+00 0.000D+00 0.000D+00 0.000D+00 0.315D-01
 Coeff-En:   0.969D+00
 Coeff:     -0.357D-02 0.445D-02 0.532D-01 0.592D-01 0.212D+00 0.273D+00
 Coeff:      0.401D+00
 Gap=     0.063 Goal=   None    Shift=    0.000
 RMSDP=5.58D-06 MaxDP=2.92D-04 DE=-3.49D-04 OVMax= 2.06D-03

 Initial convergence to 1.0D-05 achieved.  Increase integral accuracy.
 Cycle   8  Pass 1  IDiag  1:
 E= -1694.06310373666     Delta-E=        0.000364160307 Rises=F Damp=F
 DIIS: error= 4.74D-04 at cycle   1 NSaved=   1.
 NSaved= 1 IEnMin= 1 EnMin= -1694.06310373666     IErMin= 1 ErrMin= 4.74D-04
 ErrMax= 4.74D-04  0.00D+00 EMaxC= 1.00D-01 BMatC= 3.84D-05 BMatP= 3.84D-05
 IDIUse=3 WtCom= 9.95D-01 WtEn= 4.74D-03
 Coeff-Com:  0.100D+01
 Coeff-En:   0.100D+01
 Coeff:      0.100D+01
 Gap=     0.063 Goal=   None    Shift=    0.000
 RMSDP=5.58D-06 MaxDP=2.92D-04 DE= 3.64D-04 OVMax= 8.93D-04

 Cycle   9  Pass 1  IDiag  1:
 RMSU=  2.43D-04    CP:  1.00D+00
 E= -1694.06313822260     Delta-E=       -0.000034485943 Rises=F Damp=F
 DIIS: error= 7.92D-05 at cycle   2 NSaved=   2.
 NSaved= 2 IEnMin= 2 EnMin= -1694.06313822260     IErMin= 2 ErrMin= 7.92D-05
 ErrMax= 7.92D-05  0.00D+00 EMaxC= 1.00D-01 BMatC= 1.99D-06 BMatP= 3.84D-05
 IDIUse=1 WtCom= 1.00D+00 WtEn= 0.00D+00
 Coeff-Com:  0.648D-01 0.935D+00
 Coeff:      0.648D-01 0.935D+00
 Gap=     0.063 Goal=   None    Shift=    0.000
 RMSDP=4.91D-06 MaxDP=2.72D-04 DE=-3.45D-05 OVMax= 1.91D-03

 Cycle  10  Pass 1  IDiag  1:
 RMSU=  4.38D-06    CP:  1.00D+00  1.01D+00
 E= -1694.06313107700     Delta-E=        0.000007145603 Rises=F Damp=F
 DIIS: error= 1.65D-04 at cycle   3 NSaved=   3.
 NSaved= 3 IEnMin= 2 EnMin= -1694.06313822260     IErMin= 2 ErrMin= 7.92D-05
 ErrMax= 1.65D-04  0.00D+00 EMaxC= 1.00D-01 BMatC= 7.88D-06 BMatP= 1.99D-06
 IDIUse=3 WtCom= 4.37D-01 WtEn= 5.63D-01
 Coeff-Com: -0.185D-02 0.669D+00 0.332D+00
 Coeff-En:   0.000D+00 0.754D+00 0.246D+00
 Coeff:     -0.810D-03 0.717D+00 0.284D+00
 Gap=     0.063 Goal=   None    Shift=    0.000
 RMSDP=2.85D-06 MaxDP=1.82D-04 DE= 7.15D-06 OVMax= 1.50D-03

 Cycle  11  Pass 1  IDiag  1:
 RMSU=  9.19D-07    CP:  1.00D+00  1.01D+00  3.88D-01
 E= -1694.06314011258     Delta-E=       -0.000009035580 Rises=F Damp=F
 DIIS: error= 2.56D-05 at cycle   4 NSaved=   4.
 NSaved= 4 IEnMin= 4 EnMin= -1694.06314011258     IErMin= 4 ErrMin= 2.56D-05
 ErrMax= 2.56D-05  0.00D+00 EMaxC= 1.00D-01 BMatC= 2.85D-07 BMatP= 1.99D-06
 IDIUse=1 WtCom= 1.00D+00 WtEn= 0.00D+00
 Coeff-Com: -0.374D-02 0.446D+00 0.181D+00 0.376D+00
 Coeff:     -0.374D-02 0.446D+00 0.181D+00 0.376D+00
 Gap=     0.063 Goal=   None    Shift=    0.000
 RMSDP=5.28D-07 MaxDP=2.72D-05 DE=-9.04D-06 OVMax= 1.38D-04

 Cycle  12  Pass 1  IDiag  1:
 RMSU=  3.16D-07    CP:  1.00D+00  1.01D+00  3.37D-01  6.14D-01
 E= -1694.06314038994     Delta-E=       -0.000000277360 Rises=F Damp=F
 DIIS: error= 5.59D-06 at cycle   5 NSaved=   5.
 NSaved= 5 IEnMin= 5 EnMin= -1694.06314038994     IErMin= 5 ErrMin= 5.59D-06
 ErrMax= 5.59D-06  0.00D+00 EMaxC= 1.00D-01 BMatC= 3.95D-09 BMatP= 2.85D-07
 IDIUse=1 WtCom= 1.00D+00 WtEn= 0.00D+00
 Coeff-Com: -0.225D-02 0.258D+00 0.104D+00 0.228D+00 0.412D+00
 Coeff:     -0.225D-02 0.258D+00 0.104D+00 0.228D+00 0.412D+00
 Gap=     0.063 Goal=   None    Shift=    0.000
 RMSDP=9.10D-08 MaxDP=4.78D-06 DE=-2.77D-07 OVMax= 4.29D-05

 Cycle  13  Pass 1  IDiag  1:
 RMSU=  8.17D-08    CP:  1.00D+00  1.01D+00  3.39D-01  6.25D-01  8.84D-01
 E= -1694.06314039445     Delta-E=       -0.000000004514 Rises=F Damp=F
 DIIS: error= 1.97D-06 at cycle   6 NSaved=   6.
 NSaved= 6 IEnMin= 6 EnMin= -1694.06314039445     IErMin= 6 ErrMin= 1.97D-06
 ErrMax= 1.97D-06  0.00D+00 EMaxC= 1.00D-01 BMatC= 5.56D-10 BMatP= 3.95D-09
 IDIUse=1 WtCom= 1.00D+00 WtEn= 0.00D+00
 Coeff-Com: -0.837D-03 0.924D-01 0.375D-01 0.849D-01 0.272D+00 0.514D+00
 Coeff:     -0.837D-03 0.924D-01 0.375D-01 0.849D-01 0.272D+00 0.514D+00
 Gap=     0.063 Goal=   None    Shift=    0.000
 RMSDP=2.70D-08 MaxDP=1.73D-06 DE=-4.51D-09 OVMax= 1.45D-05

 Cycle  14  Pass 1  IDiag  1:
 RMSU=  1.69D-08    CP:  1.00D+00  1.01D+00  3.40D-01  6.17D-01  9.19D-01
                    CP:  8.05D-01
 E= -1694.06314039508     Delta-E=       -0.000000000634 Rises=F Damp=F
 DIIS: error= 2.42D-07 at cycle   7 NSaved=   7.
 NSaved= 7 IEnMin= 7 EnMin= -1694.06314039508     IErMin= 7 ErrMin= 2.42D-07
 ErrMax= 2.42D-07  0.00D+00 EMaxC= 1.00D-01 BMatC= 1.95D-11 BMatP= 5.56D-10
 IDIUse=1 WtCom= 1.00D+00 WtEn= 0.00D+00
 Coeff-Com: -0.149D-03 0.156D-01 0.581D-02 0.170D-01 0.706D-01 0.204D+00
 Coeff-Com:  0.687D+00
 Coeff:     -0.149D-03 0.156D-01 0.581D-02 0.170D-01 0.706D-01 0.204D+00
 Coeff:      0.687D+00
 Gap=     0.063 Goal=   None    Shift=    0.000
 RMSDP=7.65D-09 MaxDP=3.32D-07 DE=-6.34D-10 OVMax= 1.84D-06

 SCF Done:  E(RB3LYP) =  -1694.06314040     A.U. after   14 cycles
            NFock= 14  Conv=0.76D-08     -V/T= 2.0044
 KE= 1.686692211042D+03 PE=-1.326587517974D+04 EE= 5.217448186051D+03
 Leave Link  502 at Wed Sep 27 16:59:02 2023, MaxMem=  3221225472 cpu:            3575.4 elap:              97.6
 (Enter /home/center/opt/aarch64/apps/gaussian16/c01/g16/l601.exe)
 Copying SCF densities to generalized density rwf, IOpCl= 0 IROHF=0.

 **********************************************************************

            Population analysis using the SCF Density.

 **********************************************************************

 Orbital symmetries:
       Occupied  (A") (A') (A') (A") (A") (A') (A') (A") (A') (A')
                 (A") (A') (A") (A') (A") (A') (A") (A') (A') (A")
                 (A") (A') (A") (A') (A") (A') (A') (A") (A") (A')
                 (A") (A') (A") (A') (A') (A") (A') (A") (A') (A')
                 (A") (A') (A") (A') (A') (A") (A') (A") (A') (A')
                 (A") (A") (A') (A') (A") (A') (A') (A") (A') (A')
                 (A") (A") (A") (A") (A') (A') (A') (A') (A") (A")
                 (A') (A") (A") (A") (A') (A') (A") (A') (A') (A')
                 (A') (A") (A") (A') (A") (A") (A') (A") (A') (A')
                 (A") (A') (A') (A") (A") (A') (A") (A') (A") (A')
                 (A") (A') (A') (A') (A') (A') (A") (A") (A") (A')
                 (A') (A') (A") (A") (A") (A") (A") (A') (A") (A')
                 (A') (A') (A') (A") (A") (A') (A') (A") (A") (A")
                 (A') (A") (A') (A') (A") (A') (A") (A') (A') (A')
                 (A") (A") (A") (A") (A') (A')
       Virtual   (A') (A') (A") (A") (A") (A") (A') (A') (A') (A")
                 (A') (A') (A") (A') (A') (A") (A') (A') (A") (A")
                 (A') (A') (A") (A") (A') (A") (A') (A") (A') (A")
                 (A") (A') (A") (A') (A') (A") (A") (A') (A") (A')
                 (A') (A') (A") (A') (A") (A') (A") (A') (A") (A")
                 (A') (A') (A') (A') (A') (A') (A') (A") (A") (A")
                 (A') (A") (A") (A") (A') (A') (A") (A") (A') (A")
                 (A') (A') (A") (A') (A') (A") (A") (A') (A") (A')
                 (A") (A') (A') (A') (A") (A') (A") (A') (A') (A")
                 (A") (A") (A') (A') (A') (A') (A') (A") (A') (A")
                 (A") (A") (A") (A') (A") (A') (A") (A') (A") (A")
                 (A') (A') (A") (A') (A") (A') (A') (A") (A') (A")
                 (A') (A') (A") (A') (A') (A') (A') (A") (A') (A")
                 (A") (A') (A") (A') (A') (A") (A') (A") (A") (A')
                 (A') (A") (A') (A') (A") (A') (A") (A") (A") (A')
                 (A") (A') (A') (A") (A") (A') (A') (A") (A") (A')
                 (A') (A") (A') (A") (A") (A') (A") (A') (A") (A')
                 (A') (A') (A') (A") (A') (A") (A") (A') (A") (A")
                 (A") (A') (A') (A") (A') (A') (A") (A') (A') (A")
                 (A") (A") (A') (A') (A") (A') (A") (A') (A") (A')
                 (A') (A") (A') (A") (A') (A') (A") (A") (A') (A')
                 (A') (A") (A") (A") (A') (A') (A") (A') (A") (A")
                 (A') (A") (A") (A') (A") (A') (A') (A") (A') (A')
                 (A') (A") (A") (A') (A') (A") (A') (A") (A") (A')
                 (A') (A") (A') (A") (A') (A") (A') (A") (A') (A")
                 (A') (A") (A') (A") (A") (A') (A') (A") (A') (A")
                 (A') (A') (A") (A") (A') (A') (A") (A') (A") (A")
                 (A") (A') (A") (A") (A') (A') (A") (A') (A") (A")
                 (A') (A') (A") (A') (A") (A') (A") (A') (A') (A")
                 (A") (A') (A') (A') (A") (A') (A') (A") (A") (A")
                 (A") (A') (A") (A') (A') (A') (A") (A') (A") (A')
                 (A') (A") (A') (A") (A") (A') (A") (A") (A') (A")
                 (A') (A') (A") (A') (A") (A') (A") (A") (A') (A")
                 (A') (A") (A') (A") (A') (A') (A") (A") (A') (A')
                 (A") (A') (A') (A") (A') (A") (A') (A') (A") (A")
                 (A') (A") (A') (A') (A') (A") (A') (A') (A") (A')
                 (A") (A') (A") (A') (A') (A") (A") (A") (A') (A")
                 (A") (A') (A") (A") (A") (A') (A') (A") (A") (A')
                 (A') (A") (A') (A') (A') (A") (A') (A') (A") (A')
                 (A') (A") (A') (A") (A') (A") (A") (A') (A') (A")
                 (A") (A') (A") (A') (A") (A') (A") (A') (A') (A")
                 (A') (A') (A") (A') (A") (A') (A') (A') (A") (A")
                 (A") (A') (A') (A") (A') (A") (A') (A") (A') (A")
                 (A') (A") (A') (A") (A') (A") (A") (A') (A") (A')
                 (A') (A") (A") (A") (A') (A') (A") (A") (A') (A')
                 (A") (A') (A") (A') (A") (A') (A") (A') (A") (A')
                 (A") (A') (A") (A') (A') (A") (A") (A') (A') (A')
                 (A") (A') (A") (A') (A") (A") (A") (A') (A") (A')
                 (A") (A') (A') (A") (A') (A") (A") (A') (A") (A')
                 (A") (A") (A") (A') (A") (A") (A") (A') (A') (A')
                 (A") (A") (A') (A') (A') (A") (A') (A') (A") (A')
                 (A") (A') (A") (A') (A") (A') (A') (A") (A") (A')
                 (A") (A") (A') (A") (A') (A') (A") (A') (A") (A')
                 (A") (A") (A') (A') (A") (A") (A") (A') (A') (A')
                 (A") (A') (A") (A') (A') (A") (A") (A") (A') (A")
                 (A") (A') (A") (A') (A") (A') (A') (A") (A') (A')
                 (A") (A') (A') (A") (A") (A") (A') (A") (A') (A')
                 (A') (A") (A') (A") (A') (A') (A') (A") (A') (A")
                 (A") (A') (A") (A") (A') (A') (A") (A') (A') (A")
                 (A') (A") (A") (A") (A") (A') (A") (A') (A') (A')
                 (A') (A") (A') (A') (A') (A') (A") (A") (A") (A')
                 (A') (A") (A') (A") (A') (A") (A') (A") (A") (A')
                 (A') (A') (A') (A") (A') (A") (A") (A') (A") (A')
                 (A") (A") (A') (A") (A') (A") (A') (A') (A') (A")
                 (A") (A') (A') (A") (A') (A") (A") (A') (A") (A')
                 (A') (A") (A') (A") (A') (A") (A') (A') (A') (A")
                 (A') (A") (A") (A") (A') (A") (A') (A') (A") (A')
                 (A') (A") (A") (A') (A") (A') (A") (A") (A') (A')
                 (A') (A') (A") (A") (A') (A') (A") (A") (A") (A")
                 (A') (A') (A") (A') (A') (A") (A') (A") (A") (A')
                 (A") (A') (A') (A") (A') (A") (A') (A") (A") (A')
                 (A") (A") (A') (A") (A') (A') (A') (A") (A') (A")
                 (A') (A") (A') (A') (A") (A') (A") (A') (A') (A")
                 (A') (A") (A') (A") (A") (A') (A') (A") (A") (A')
                 (A') (A") (A') (A") (A') (A') (A") (A') (A') (A")
                 (A') (A') (A") (A') (A") (A") (A') (A') (A") (A")
                 (A") (A') (A") (A") (A') (A') (A") (A") (A') (A")
                 (A') (A') (A") (A") (A') (A') (A') (A') (A") (A")
                 (A") (A") (A') (A') (A") (A') (A") (A') (A') (A')
                 (A") (A") (A") (A") (A') (A') (A") (A') (A') (A')
                 (A") (A") (A') (A') (A") (A") (A') (A') (A") (A')
                 (A') (A") (A') (A")
 The electronic state is 1-A'.
 Alpha  occ. eigenvalues --  -10.19720 -10.19720 -10.19683 -10.19682 -10.19605
 Alpha  occ. eigenvalues --  -10.19604 -10.19566 -10.19566 -10.18739 -10.18731
 Alpha  occ. eigenvalues --  -10.18678 -10.18678 -10.18675 -10.18675 -10.18548
 Alpha  occ. eigenvalues --  -10.18548 -10.18530 -10.18530 -10.18480 -10.18480
 Alpha  occ. eigenvalues --  -10.18447 -10.18447 -10.17957 -10.17957 -10.17913
 Alpha  occ. eigenvalues --  -10.17913 -10.17856 -10.17855 -10.17774 -10.17774
 Alpha  occ. eigenvalues --  -10.17050 -10.17050 -10.16972 -10.16972 -10.16954
 Alpha  occ. eigenvalues --  -10.16951 -10.16950 -10.16862 -10.16862 -10.16852
 Alpha  occ. eigenvalues --  -10.16810 -10.16810 -10.16724 -10.16724  -0.90162
 Alpha  occ. eigenvalues --   -0.88653  -0.88356  -0.86905  -0.86321  -0.84601
 Alpha  occ. eigenvalues --   -0.83176  -0.81474  -0.80565  -0.79274  -0.79030
 Alpha  occ. eigenvalues --   -0.78815  -0.77584  -0.77332  -0.76696  -0.75020
 Alpha  occ. eigenvalues --   -0.75012  -0.73602  -0.73312  -0.71936  -0.69908
 Alpha  occ. eigenvalues --   -0.68232  -0.68075  -0.66396  -0.63444  -0.63077
 Alpha  occ. eigenvalues --   -0.61813  -0.61769  -0.61435  -0.60650  -0.60093
 Alpha  occ. eigenvalues --   -0.59984  -0.58963  -0.58376  -0.58325  -0.56745
 Alpha  occ. eigenvalues --   -0.53419  -0.53258  -0.52969  -0.51772  -0.51598
 Alpha  occ. eigenvalues --   -0.51356  -0.50316  -0.49214  -0.48676  -0.47809
 Alpha  occ. eigenvalues --   -0.47602  -0.46760  -0.46232  -0.46209  -0.46195
 Alpha  occ. eigenvalues --   -0.45435  -0.44791  -0.44626  -0.44525  -0.43829
 Alpha  occ. eigenvalues --   -0.43209  -0.43012  -0.42474  -0.42339  -0.42247
 Alpha  occ. eigenvalues --   -0.41876  -0.41646  -0.41434  -0.41088  -0.40821
 Alpha  occ. eigenvalues --   -0.40593  -0.40438  -0.40270  -0.39714  -0.39443
 Alpha  occ. eigenvalues --   -0.38857  -0.38657  -0.37520  -0.37295  -0.37006
 Alpha  occ. eigenvalues --   -0.36206  -0.35824  -0.35442  -0.34810  -0.34458
 Alpha  occ. eigenvalues --   -0.34346  -0.33734  -0.33529  -0.33137  -0.32670
 Alpha  occ. eigenvalues --   -0.32498  -0.32031  -0.31838  -0.30590  -0.30470
 Alpha  occ. eigenvalues --   -0.29158  -0.28665  -0.27517  -0.27420  -0.25634
 Alpha  occ. eigenvalues --   -0.25248  -0.23457  -0.23372  -0.21595  -0.18660
 Alpha  occ. eigenvalues --   -0.16850
 Alpha virt. eigenvalues --   -0.10538  -0.08797  -0.05230  -0.03563  -0.03528
 Alpha virt. eigenvalues --   -0.01822  -0.00917   0.00769   0.01319   0.01570
 Alpha virt. eigenvalues --    0.02332   0.02983   0.03225   0.03729   0.03977
 Alpha virt. eigenvalues --    0.03989   0.04762   0.05539   0.05871   0.05924
 Alpha virt. eigenvalues --    0.06111   0.06759   0.07291   0.07562   0.07830
 Alpha virt. eigenvalues --    0.08167   0.08731   0.09213   0.09577   0.09684
 Alpha virt. eigenvalues --    0.10265   0.10816   0.11046   0.11155   0.11464
 Alpha virt. eigenvalues --    0.12390   0.12898   0.13372   0.13423   0.13650
 Alpha virt. eigenvalues --    0.14263   0.15020   0.15873   0.15967   0.17313
 Alpha virt. eigenvalues --    0.17815   0.18257   0.18379   0.18912   0.19699
 Alpha virt. eigenvalues --    0.19762   0.20198   0.22163   0.22226   0.23741
 Alpha virt. eigenvalues --    0.23833   0.24053   0.24305   0.24971   0.25129
 Alpha virt. eigenvalues --    0.25347   0.26300   0.26879   0.26935   0.27087
 Alpha virt. eigenvalues --    0.27578   0.27633   0.28316   0.28668   0.28728
 Alpha virt. eigenvalues --    0.29090   0.29471   0.29477   0.29988   0.30282
 Alpha virt. eigenvalues --    0.30321   0.30638   0.31279   0.31851   0.32060
 Alpha virt. eigenvalues --    0.32713   0.33766   0.34188   0.34326   0.34736
 Alpha virt. eigenvalues --    0.35024   0.35139   0.35154   0.35274   0.35950
 Alpha virt. eigenvalues --    0.36532   0.36953   0.37697   0.37739   0.38335
 Alpha virt. eigenvalues --    0.38568   0.38781   0.38803   0.38849   0.39117
 Alpha virt. eigenvalues --    0.39376   0.39473   0.39601   0.39799   0.39951
 Alpha virt. eigenvalues --    0.39977   0.40055   0.40530   0.41218   0.41302
 Alpha virt. eigenvalues --    0.41784   0.42152   0.42355   0.42506   0.42525
 Alpha virt. eigenvalues --    0.42916   0.43123   0.43132   0.43385   0.44136
 Alpha virt. eigenvalues --    0.44165   0.44535   0.44542   0.44613   0.44887
 Alpha virt. eigenvalues --    0.45246   0.45327   0.45328   0.45707   0.45851
 Alpha virt. eigenvalues --    0.45870   0.45960   0.46093   0.46623   0.46834
 Alpha virt. eigenvalues --    0.47033   0.47217   0.47389   0.48005   0.48687
 Alpha virt. eigenvalues --    0.48971   0.49144   0.49449   0.49693   0.49909
 Alpha virt. eigenvalues --    0.50083   0.50394   0.50452   0.50847   0.50963
 Alpha virt. eigenvalues --    0.51494   0.51561   0.51695   0.51960   0.52322
 Alpha virt. eigenvalues --    0.53038   0.53849   0.53864   0.54417   0.54496
 Alpha virt. eigenvalues --    0.55266   0.55886   0.56679   0.57277   0.57349
 Alpha virt. eigenvalues --    0.57419   0.58317   0.58389   0.58452   0.58628
 Alpha virt. eigenvalues --    0.58856   0.59358   0.59899   0.60025   0.60569
 Alpha virt. eigenvalues --    0.60605   0.61178   0.61441   0.61672   0.61696
 Alpha virt. eigenvalues --    0.62000   0.62121   0.62541   0.62577   0.62721
 Alpha virt. eigenvalues --    0.63247   0.63590   0.63637   0.63701   0.63973
 Alpha virt. eigenvalues --    0.64214   0.64699   0.64864   0.65701   0.66173
 Alpha virt. eigenvalues --    0.66414   0.66593   0.66828   0.66948   0.67152
 Alpha virt. eigenvalues --    0.67416   0.67774   0.69934   0.70022   0.70845
 Alpha virt. eigenvalues --    0.70924   0.71758   0.71843   0.72146   0.72632
 Alpha virt. eigenvalues --    0.72775   0.73021   0.73472   0.73722   0.74118
 Alpha virt. eigenvalues --    0.74176   0.74659   0.76216   0.76288   0.76511
 Alpha virt. eigenvalues --    0.76855   0.77391   0.77919   0.78041   0.78473
 Alpha virt. eigenvalues --    0.78906   0.79234   0.79623   0.79987   0.80619
 Alpha virt. eigenvalues --    0.80746   0.80900   0.81900   0.82064   0.82330
 Alpha virt. eigenvalues --    0.82585   0.83031   0.83208   0.83691   0.83978
 Alpha virt. eigenvalues --    0.84163   0.84531   0.85112   0.85654   0.85849
 Alpha virt. eigenvalues --    0.86738   0.86742   0.87367   0.88428   0.88581
 Alpha virt. eigenvalues --    0.90009   0.90189   0.90358   0.90731   0.91628
 Alpha virt. eigenvalues --    0.92165   0.93056   0.93511   0.94460   0.94685
 Alpha virt. eigenvalues --    0.95383   0.95784   0.95918   0.96462   0.97213
 Alpha virt. eigenvalues --    0.97600   0.97741   0.98078   0.98346   0.98811
 Alpha virt. eigenvalues --    0.99515   1.00062   1.00571   1.01654   1.01675
 Alpha virt. eigenvalues --    1.02126   1.02364   1.02539   1.03227   1.03495
 Alpha virt. eigenvalues --    1.03615   1.03697   1.04676   1.04761   1.05026
 Alpha virt. eigenvalues --    1.05321   1.05367   1.05927   1.06141   1.06545
 Alpha virt. eigenvalues --    1.06579   1.06701   1.06963   1.07111   1.07393
 Alpha virt. eigenvalues --    1.07618   1.08667   1.08886   1.08969   1.09515
 Alpha virt. eigenvalues --    1.09678   1.10287   1.11035   1.11396   1.12475
 Alpha virt. eigenvalues --    1.12556   1.12753   1.12792   1.13023   1.13540
 Alpha virt. eigenvalues --    1.13661   1.13798   1.14286   1.15189   1.15440
 Alpha virt. eigenvalues --    1.16164   1.16282   1.16919   1.17271   1.17733
 Alpha virt. eigenvalues --    1.18655   1.18858   1.19495   1.19527   1.21406
 Alpha virt. eigenvalues --    1.21988   1.22788   1.23459   1.23796   1.24918
 Alpha virt. eigenvalues --    1.25443   1.26420   1.27274   1.27652   1.29871
 Alpha virt. eigenvalues --    1.30050   1.30854   1.31581   1.32151   1.32911
 Alpha virt. eigenvalues --    1.33686   1.34429   1.35771   1.36596   1.37004
 Alpha virt. eigenvalues --    1.38971   1.39260   1.39702   1.39833   1.40609
 Alpha virt. eigenvalues --    1.40972   1.41799   1.41992   1.42133   1.42182
 Alpha virt. eigenvalues --    1.42360   1.43581   1.44395   1.44457   1.44775
 Alpha virt. eigenvalues --    1.46044   1.46444   1.46529   1.46707   1.47627
 Alpha virt. eigenvalues --    1.47856   1.48293   1.48567   1.48583   1.48955
 Alpha virt. eigenvalues --    1.49147   1.50123   1.50335   1.50452   1.50724
 Alpha virt. eigenvalues --    1.50727   1.51364   1.51914   1.52268   1.53032
 Alpha virt. eigenvalues --    1.53080   1.53553   1.53559   1.53769   1.54929
 Alpha virt. eigenvalues --    1.55003   1.55466   1.55568   1.55618   1.56166
 Alpha virt. eigenvalues --    1.56644   1.57809   1.58242   1.58537   1.59396
 Alpha virt. eigenvalues --    1.59406   1.59771   1.60783   1.60884   1.61579
 Alpha virt. eigenvalues --    1.62143   1.62512   1.62643   1.62883   1.64931
 Alpha virt. eigenvalues --    1.65467   1.65925   1.66087   1.67204   1.67809
 Alpha virt. eigenvalues --    1.68642   1.68895   1.70135   1.70740   1.71130
 Alpha virt. eigenvalues --    1.71131   1.71636   1.71790   1.72518   1.72782
 Alpha virt. eigenvalues --    1.73517   1.73545   1.73724   1.73920   1.73990
 Alpha virt. eigenvalues --    1.74255   1.75125   1.75173   1.75565   1.76853
 Alpha virt. eigenvalues --    1.76956   1.78095   1.78507   1.79361   1.79895
 Alpha virt. eigenvalues --    1.80101   1.80199   1.81055   1.81544   1.82140
 Alpha virt. eigenvalues --    1.82260   1.82443   1.82870   1.83028   1.83289
 Alpha virt. eigenvalues --    1.84002   1.84053   1.84110   1.84953   1.85437
 Alpha virt. eigenvalues --    1.86109   1.86882   1.86990   1.87054   1.87253
 Alpha virt. eigenvalues --    1.87341   1.87873   1.88667   1.88700   1.88862
 Alpha virt. eigenvalues --    1.89125   1.89669   1.89682   1.90149   1.91321
 Alpha virt. eigenvalues --    1.91333   1.91494   1.92031   1.92364   1.92626
 Alpha virt. eigenvalues --    1.92714   1.93417   1.93421   1.93563   1.93703
 Alpha virt. eigenvalues --    1.93871   1.94551   1.94686   1.95150   1.95893
 Alpha virt. eigenvalues --    1.96151   1.96357   1.96402   1.97622   1.97697
 Alpha virt. eigenvalues --    1.99377   2.00564   2.00626   2.00743   2.01318
 Alpha virt. eigenvalues --    2.01905   2.01990   2.02743   2.03214   2.03691
 Alpha virt. eigenvalues --    2.06624   2.07333   2.07397   2.08430   2.09145
 Alpha virt. eigenvalues --    2.09383   2.10280   2.10514   2.11454   2.11975
 Alpha virt. eigenvalues --    2.11980   2.13211   2.13613   2.14226   2.15237
 Alpha virt. eigenvalues --    2.15728   2.16515   2.16555   2.17372   2.18276
 Alpha virt. eigenvalues --    2.18419   2.19115   2.20195   2.22081   2.22318
 Alpha virt. eigenvalues --    2.22501   2.22852   2.23238   2.23266   2.23855
 Alpha virt. eigenvalues --    2.24751   2.25687   2.25961   2.26555   2.26962
 Alpha virt. eigenvalues --    2.27018   2.27087   2.27549   2.27807   2.28407
 Alpha virt. eigenvalues --    2.28462   2.29896   2.29952   2.31244   2.33032
 Alpha virt. eigenvalues --    2.34929   2.35055   2.35551   2.37051   2.38605
 Alpha virt. eigenvalues --    2.38666   2.40181   2.40407   2.40899   2.42173
 Alpha virt. eigenvalues --    2.42565   2.42854   2.44484   2.44849   2.45010
 Alpha virt. eigenvalues --    2.45260   2.45933   2.47022   2.47187   2.49377
 Alpha virt. eigenvalues --    2.51627   2.52897   2.53053   2.53482   2.54172
 Alpha virt. eigenvalues --    2.54736   2.55535   2.56735   2.57038   2.58075
 Alpha virt. eigenvalues --    2.58283   2.59127   2.59310   2.59638   2.59748
 Alpha virt. eigenvalues --    2.60649   2.61193   2.61193   2.61271   2.61576
 Alpha virt. eigenvalues --    2.61893   2.62578   2.62650   2.63173   2.63438
 Alpha virt. eigenvalues --    2.63712   2.64067   2.64463   2.64727   2.65364
 Alpha virt. eigenvalues --    2.65797   2.65842   2.66446   2.66616   2.66793
 Alpha virt. eigenvalues --    2.66839   2.67251   2.67826   2.68137   2.68542
 Alpha virt. eigenvalues --    2.68623   2.68835   2.68875   2.69394   2.69643
 Alpha virt. eigenvalues --    2.69768   2.69892   2.70262   2.71579   2.71619
 Alpha virt. eigenvalues --    2.72528   2.72560   2.72716   2.72929   2.73280
 Alpha virt. eigenvalues --    2.73414   2.73918   2.73963   2.74515   2.74682
 Alpha virt. eigenvalues --    2.75051   2.75333   2.75811   2.76601   2.77371
 Alpha virt. eigenvalues --    2.77498   2.77592   2.77804   2.78208   2.79438
 Alpha virt. eigenvalues --    2.79475   2.79514   2.79580   2.80722   2.81834
 Alpha virt. eigenvalues --    2.82310   2.82892   2.83883   2.84173   2.84834
 Alpha virt. eigenvalues --    2.86175   2.86414   2.87155   2.87653   2.87840
 Alpha virt. eigenvalues --    2.88955   2.89447   2.90338   2.90665   2.91914
 Alpha virt. eigenvalues --    2.93178   2.93464   2.93921   2.94092   2.94239
 Alpha virt. eigenvalues --    2.96583   2.97063   2.97942   2.98136   2.98601
 Alpha virt. eigenvalues --    2.98677   2.98707   3.00571   3.02160   3.02709
 Alpha virt. eigenvalues --    3.05140   3.05269   3.06017   3.07246   3.08067
 Alpha virt. eigenvalues --    3.09126   3.09436   3.15763   3.16130   3.16942
 Alpha virt. eigenvalues --    3.17316   3.17778   3.18242   3.19188   3.20645
 Alpha virt. eigenvalues --    3.21117   3.21731   3.24353   3.24993   3.29905
 Alpha virt. eigenvalues --    3.30728   3.30764   3.30938   3.31145   3.33125
 Alpha virt. eigenvalues --    3.35238   3.36180   3.36561   3.36869   3.37105
 Alpha virt. eigenvalues --    3.37323   3.37457   3.38869   3.39219   3.39284
 Alpha virt. eigenvalues --    3.40812   3.41123   3.42335   3.42734   3.44623
 Alpha virt. eigenvalues --    3.44800   3.46129   3.46703   3.49334   3.49374
 Alpha virt. eigenvalues --    3.50352   3.51556   3.52371   3.52588   3.53021
 Alpha virt. eigenvalues --    3.55019   3.56901   3.58434   3.58728   3.60082
 Alpha virt. eigenvalues --    3.61663   3.62504   3.62792   3.63668   3.64282
 Alpha virt. eigenvalues --    3.64310   3.66476   3.66693   3.68089   3.68241
 Alpha virt. eigenvalues --    3.68617   3.70824   3.72352   3.72426   4.00132
 Alpha virt. eigenvalues --    4.00154   4.01232   4.01557   4.02008   4.02042
 Alpha virt. eigenvalues --    4.03052   4.03373   4.15533   4.16079   4.17471
 Alpha virt. eigenvalues --    4.18578   4.19180   4.20520   4.20649   4.21773
 Alpha virt. eigenvalues --    4.21875   4.23197   4.24009   4.25849   4.25951
 Alpha virt. eigenvalues --    4.29132   4.38325   4.40838   4.62006   4.64361
 Alpha virt. eigenvalues --    4.78438   4.79058   4.79831   4.80899   4.81244
 Alpha virt. eigenvalues --    4.81877   4.82322   4.82667   4.84877   4.85069
 Alpha virt. eigenvalues --   23.40250  23.45485  23.55323  23.61336  23.69809
 Alpha virt. eigenvalues --   23.75050  23.76949  23.79226  23.80983  23.81093
 Alpha virt. eigenvalues --   23.82858  23.85473  23.85532  23.87704  23.88456
 Alpha virt. eigenvalues --   23.89826  23.90818  23.91487  23.92199  23.94658
 Alpha virt. eigenvalues --   23.96789  23.98702  23.98734  23.99834  24.08884
 Alpha virt. eigenvalues --   24.09457  24.10194  24.10423  24.11015  24.11498
 Alpha virt. eigenvalues --   24.11624  24.13050  24.13595  24.13634  24.15025
 Alpha virt. eigenvalues --   24.15197  24.15234  24.15709  24.16732  24.16763
 Alpha virt. eigenvalues --   24.19792  24.19837  24.21557  24.21625
          Condensed to atoms (all electrons):
 Mulliken charges:
               1
     1  C   -0.067125
     2  C   -0.071451
     3  C   -0.052640
     4  C   -0.061084
     5  C   -0.094178
     6  C   -0.096082
     7  C   -0.008106
     8  C   -0.063455
     9  C   -0.020833
    10  C   -0.065355
    11  H    0.085241
    12  H    0.077639
    13  H    0.077120
    14  H    0.085133
    15  H    0.098227
    16  H    0.098044
    17  C   -0.012736
    18  C   -0.063455
    19  C   -0.025350
    20  C   -0.065355
    21  H    0.076331
    22  H    0.075820
    23  C   -0.008106
    24  C   -0.067125
    25  C   -0.020833
    26  C   -0.071451
    27  H    0.077639
    28  H    0.077120
    29  C   -0.052640
    30  C   -0.094178
    31  C   -0.061084
    32  C   -0.096082
    33  H    0.085241
    34  H    0.098044
    35  H    0.098227
    36  H    0.085133
    37  C   -0.021783
    38  C   -0.130301
    39  C   -0.063914
    40  C   -0.038921
    41  C   -0.086261
    42  C   -0.125639
    43  C   -0.031469
    44  C   -0.010154
    45  C    0.002900
    46  C   -0.136176
    47  H    0.078276
    48  H    0.069946
    49  H    0.128187
    50  H    0.132559
    51  H    0.084958
    52  H    0.090745
    53  C   -0.035750
    54  C   -0.010154
    55  C   -0.000905
    56  C   -0.136176
    57  H    0.068555
    58  H    0.125941
    59  C   -0.031469
    60  C   -0.021783
    61  C    0.002900
    62  C   -0.130301
    63  H    0.069946
    64  H    0.128187
    65  C   -0.063914
    66  C   -0.086261
    67  C   -0.038921
    68  C   -0.125639
    69  H    0.078276
    70  H    0.090745
    71  H    0.084958
    72  H    0.132559
 Sum of Mulliken charges =   0.00000
 Mulliken charges with hydrogens summed into heavy atoms:
               1
     1  C   -0.067125
     2  C   -0.071451
     3  C    0.032601
     4  C    0.024049
     5  C    0.003865
     6  C    0.002145
     7  C    0.069532
     8  C   -0.063455
     9  C    0.056287
    10  C   -0.065355
    17  C    0.063594
    18  C   -0.063455
    19  C    0.050470
    20  C   -0.065355
    23  C    0.069532
    24  C   -0.067125
    25  C    0.056287
    26  C   -0.071451
    29  C    0.032601
    30  C    0.003865
    31  C    0.024049
    32  C    0.002145
    37  C   -0.021783
    38  C   -0.130301
    39  C    0.014362
    40  C    0.093638
    41  C    0.004483
    42  C   -0.040681
    43  C    0.038478
    44  C   -0.010154
    45  C    0.131088
    46  C   -0.136176
    53  C    0.032805
    54  C   -0.010154
    55  C    0.125036
    56  C   -0.136176
    59  C    0.038478
    60  C   -0.021783
    61  C    0.131088
    62  C   -0.130301
    65  C    0.014362
    66  C    0.004483
    67  C    0.093638
    68  C   -0.040681
         Mulliken charges condensed to fragments:
      1     -0.043748
      2      0.043748
 Electronic spatial extent (au):  <R**2>=          25457.9740
 Charge=              0.0000 electrons
 Dipole moment (field-independent basis, Debye):
    X=              0.1102    Y=             -1.6480    Z=              0.0000  Tot=              1.6517
 Quadrupole moment (field-independent basis, Debye-Ang):
   XX=           -245.6333   YY=           -249.6652   ZZ=           -220.0413
   XY=             -0.0741   XZ=              0.0000   YZ=              0.0000
 Traceless Quadrupole moment (field-independent basis, Debye-Ang):
   XX=             -7.1867   YY=            -11.2186   ZZ=             18.4053
   XY=             -0.0741   XZ=              0.0000   YZ=              0.0000
 Octapole moment (field-independent basis, Debye-Ang**2):
  XXX=              7.4746  YYY=            169.6665  ZZZ=              0.0000  XYY=             -1.3312
  XXY=            -70.9400  XXZ=              0.0000  XZZ=              1.9418  YZZ=            -36.9039
  YYZ=              0.0000  XYZ=              0.0000
 Hexadecapole moment (field-independent basis, Debye-Ang**3):
 XXXX=          -1268.6425 YYYY=         -11082.9092 ZZZZ=         -21054.5599 XXXY=            166.7702
 XXXZ=              0.0000 YYYX=            168.4797 YYYZ=              0.0000 ZZZX=              0.0000
 ZZZY=              0.0000 XXYY=          -2130.1931 XXZZ=          -4158.9492 YYZZ=          -5651.9508
 XXYZ=              0.0000 YYXZ=              0.0000 ZZXY=             49.0614
 N-N= 4.667671642253D+03 E-N=-1.326587519982D+04  KE= 1.686692211042D+03
 Symmetry A'   KE= 9.134298467698D+02
 Symmetry A"   KE= 7.732623642720D+02
 No NMR shielding tensors so no spin-rotation constants.
 Leave Link  601 at Wed Sep 27 16:59:05 2023, MaxMem=  3221225472 cpu:              51.5 elap:               1.4
 (Enter /home/center/opt/aarch64/apps/gaussian16/c01/g16/l122.exe)
 CPIOFr:  IOpCl= 0 IRwI=-1 IRwCP=  731 ICalc= -1 LCPTot=     1419224 Len1MO=     3708034 IndFrg=     1419224
 CPIOFr:  IOpCl= 0 IRwI=-1 IRwCP=  731 ICalc=  0 LCPTot=     1419224 Len1MO=     3708034 IndFrg=     5127258
 Counterpoise: doing calculation for fragment   1 using the basis set of the full-system, NewBq=T
 Leave Link  122 at Wed Sep 27 16:59:08 2023, MaxMem=  3221225472 cpu:               9.0 elap:               0.4
 (Enter /home/center/opt/aarch64/apps/gaussian16/c01/g16/l301.exe)
 Basis read from rwf:  (5D, 7F)
 No pseudopotential information found on rwf file.
 There are   528 symmetry adapted cartesian basis functions of A'  symmetry.
 There are   476 symmetry adapted cartesian basis functions of A"  symmetry.
 There are   504 symmetry adapted basis functions of A'  symmetry.
 There are   456 symmetry adapted basis functions of A"  symmetry.
   960 basis functions,  1632 primitive gaussians,  1004 cartesian basis functions
    73 alpha electrons       73 beta electrons
       nuclear repulsion energy      1494.3575060355 Hartrees.
 IExCor=  402 DFT=T Ex+Corr=B3LYP ExCW=0 ScaHFX=  0.200000
 ScaDFX=  0.800000  0.720000  1.000000  0.810000 ScalE2=  1.000000  1.000000
 IRadAn=      5 IRanWt=     -1 IRanGd=            0 ICorTp=0 IEmpDi=131
 NAtoms=   72 NActive=   72 NUniq=   40 SFac= 3.24D+00 NAtFMM=   60 NAOKFM=T Big=F
 Integral buffers will be    131072 words long.
 Raffenetti 2 integral format.
 Two-electron integral symmetry is turned on.
 R6Disp:  Grimme-D3 Dispersion energy=       -0.0303938888 Hartrees.
 Nuclear repulsion after empirical dispersion term =     1494.3271121467 Hartrees.
 No density basis found on file    718.
 Leave Link  301 at Wed Sep 27 16:59:11 2023, MaxMem=  3221225472 cpu:               5.1 elap:               0.2
 (Enter /home/center/opt/aarch64/apps/gaussian16/c01/g16/l302.exe)
 NPDir=0 NMtPBC=     1 NCelOv=     1 NCel=       1 NClECP=     1 NCelD=      1
         NCelK=      1 NCelE2=     1 NClLst=     1 CellRange=     0.0.
 One-electron integrals computed using PRISM.
 One-electron integral symmetry used in STVInt
 NBasis=   960 RedAO= T EigKep=  3.79D-05  NBF=   504   456
 NBsUse=   960 1.00D-06 EigRej= -1.00D+00 NBFU=   504   456
 Precomputing XC quadrature grid using
 IXCGrd= 4 IRadAn=           5 IRanWt=          -1 IRanGd=           0 AccXCQ= 0.00D+00.
 Generated NRdTot=       0 NPtTot=           0 NUsed=           0 NTot=          32
 NSgBfM=   991   991   991   991   991 MxSgAt=    72 MxSgA2=    72.
 Leave Link  302 at Wed Sep 27 16:59:15 2023, MaxMem=  3221225472 cpu:              59.1 elap:               1.7
 (Enter /home/center/opt/aarch64/apps/gaussian16/c01/g16/l303.exe)
 DipDrv:  MaxL=1.
 Leave Link  303 at Wed Sep 27 16:59:17 2023, MaxMem=  3221225472 cpu:              12.8 elap:               0.4
 (Enter /home/center/opt/aarch64/apps/gaussian16/c01/g16/l401.exe)
 ExpMin= 1.03D-01 ExpMax= 4.56D+03 ExpMxC= 6.82D+02 IAcc=3 IRadAn=         5 AccDes= 0.00D+00
 Harris functional with IExCor=  402 and IRadAn=       5 diagonalized for initial guess.
 HarFok:  IExCor=  402 AccDes= 0.00D+00 IRadAn=         5 IDoV= 1 UseB2=F ITyADJ=14
 ICtDFT=  3500011 ScaDFX=  1.000000  1.000000  1.000000  1.000000
 FoFCou: FMM=F IPFlag=           0 FMFlag=      100000 FMFlg1=        2000
         NFxFlg=           0 DoJE=T BraDBF=F KetDBF=T FulRan=T
         wScrn=  0.000000 ICntrl=       500 IOpCl=  0 I1Cent=   200000004 NGrid=           0
         NMat0=    1 NMatS0=      1 NMatT0=    0 NMatD0=    1 NMtDS0=    0 NMtDT0=    0
 Petite list used in FoFCou.
 Harris En= -847.067061751774    
 JPrj=0 DoOrth=F DoCkMO=F.
 Initial guess orbital symmetries:
       Occupied  (A") (A') (A') (A") (A") (A') (A") (A') (A') (A")
                 (A") (A') (A') (A') (A") (A') (A") (A') (A") (A')
                 (A') (A") (A') (A") (A') (A") (A') (A') (A") (A')
                 (A") (A") (A') (A') (A") (A") (A') (A") (A') (A')
                 (A') (A") (A") (A") (A') (A') (A") (A') (A') (A")
                 (A') (A") (A") (A') (A') (A") (A') (A") (A') (A")
                 (A") (A') (A') (A") (A') (A") (A') (A") (A') (A')
                 (A") (A") (A')
       Virtual   (A') (A") (A") (A') (A') (A") (A') (A") (A') (A")
                 (A') (A') (A") (A') (A") (A') (A') (A") (A') (A")
                 (A") (A") (A') (A') (A") (A') (A') (A') (A") (A')
                 (A') (A") (A") (A') (A') (A") (A') (A") (A") (A')
                 (A') (A") (A") (A') (A") (A') (A") (A') (A") (A')
                 (A') (A") (A') (A") (A') (A') (A") (A") (A') (A")
                 (A') (A') (A') (A') (A") (A") (A") (A") (A') (A')
                 (A") (A') (A') (A") (A') (A') (A') (A") (A') (A')
                 (A") (A") (A") (A") (A') (A') (A") (A") (A') (A")
                 (A') (A') (A") (A") (A') (A') (A') (A') (A") (A')
                 (A") (A') (A") (A') (A") (A") (A') (A') (A") (A')
                 (A') (A') (A") (A') (A") (A") (A") (A") (A') (A")
                 (A') (A") (A') (A") (A') (A") (A') (A') (A") (A')
                 (A") (A') (A') (A') (A') (A") (A") (A") (A') (A')
                 (A') (A") (A') (A") (A') (A") (A") (A') (A") (A")
                 (A') (A') (A") (A") (A') (A') (A") (A') (A') (A")
                 (A") (A') (A') (A') (A") (A') (A") (A") (A') (A")
                 (A") (A') (A") (A') (A') (A') (A") (A') (A") (A")
                 (A') (A") (A') (A") (A") (A') (A') (A") (A") (A')
                 (A') (A') (A') (A') (A") (A') (A') (A") (A") (A")
                 (A') (A") (A') (A") (A") (A') (A') (A") (A') (A")
                 (A") (A') (A") (A') (A") (A") (A') (A") (A') (A')
                 (A') (A") (A') (A") (A') (A") (A') (A') (A") (A')
                 (A") (A') (A') (A") (A") (A') (A") (A") (A') (A")
                 (A') (A') (A") (A') (A") (A') (A") (A') (A") (A")
                 (A") (A') (A") (A') (A') (A') (A') (A") (A') (A")
                 (A') (A") (A") (A') (A') (A') (A") (A") (A') (A")
                 (A') (A') (A") (A") (A') (A") (A") (A') (A') (A')
                 (A") (A") (A') (A") (A') (A") (A') (A") (A") (A')
                 (A') (A') (A') (A") (A') (A") (A") (A') (A') (A')
                 (A") (A') (A") (A') (A') (A") (A") (A") (A") (A')
                 (A') (A") (A') (A") (A") (A') (A') (A") (A') (A')
                 (A") (A") (A") (A') (A') (A") (A') (A') (A") (A')
                 (A') (A") (A') (A') (A") (A') (A') (A") (A") (A")
                 (A') (A") (A") (A') (A") (A') (A") (A') (A') (A')
                 (A") (A') (A") (A') (A') (A") (A') (A") (A') (A")
                 (A') (A') (A") (A') (A") (A') (A") (A") (A') (A')
                 (A") (A") (A") (A") (A') (A") (A') (A') (A') (A")
                 (A") (A') (A') (A") (A') (A") (A') (A") (A') (A")
                 (A') (A") (A") (A') (A") (A') (A') (A') (A") (A")
                 (A') (A') (A') (A") (A") (A") (A") (A') (A') (A")
                 (A') (A") (A') (A') (A') (A") (A") (A') (A') (A")
                 (A") (A') (A") (A") (A') (A") (A") (A") (A") (A')
                 (A') (A') (A') (A') (A') (A") (A') (A") (A") (A')
                 (A') (A") (A') (A') (A") (A') (A") (A") (A") (A')
                 (A") (A') (A') (A") (A') (A") (A") (A') (A") (A')
                 (A') (A") (A') (A") (A') (A") (A') (A") (A') (A")
                 (A') (A') (A") (A") (A") (A') (A") (A') (A') (A")
                 (A") (A') (A") (A') (A") (A') (A') (A") (A') (A")
                 (A") (A') (A") (A') (A') (A') (A") (A') (A") (A")
                 (A") (A') (A') (A") (A') (A") (A') (A") (A') (A')
                 (A") (A") (A') (A") (A") (A") (A') (A') (A') (A")
                 (A') (A") (A') (A') (A") (A') (A") (A') (A') (A")
                 (A") (A') (A') (A") (A') (A") (A') (A") (A') (A")
                 (A') (A") (A') (A') (A") (A') (A") (A') (A') (A")
                 (A") (A') (A") (A') (A') (A") (A") (A') (A") (A')
                 (A') (A") (A') (A") (A') (A") (A") (A') (A') (A")
                 (A") (A') (A') (A") (A') (A') (A") (A') (A') (A")
                 (A") (A') (A") (A") (A') (A") (A') (A") (A") (A')
                 (A') (A') (A') (A") (A') (A") (A') (A") (A") (A')
                 (A') (A") (A") (A") (A') (A') (A") (A') (A") (A')
                 (A') (A") (A') (A") (A') (A") (A') (A") (A') (A')
                 (A') (A") (A") (A") (A') (A") (A") (A') (A') (A")
                 (A") (A') (A") (A") (A") (A') (A') (A') (A') (A")
                 (A') (A") (A') (A") (A") (A') (A") (A') (A') (A")
                 (A') (A") (A') (A") (A') (A") (A") (A') (A") (A')
                 (A") (A') (A') (A") (A") (A") (A') (A') (A") (A')
                 (A') (A") (A") (A') (A') (A") (A') (A") (A') (A')
                 (A") (A') (A") (A') (A') (A") (A') (A') (A") (A")
                 (A') (A") (A') (A') (A") (A") (A') (A") (A') (A')
                 (A") (A") (A') (A") (A') (A") (A') (A') (A") (A')
                 (A") (A') (A") (A') (A") (A') (A') (A") (A') (A')
                 (A") (A') (A") (A") (A") (A') (A') (A') (A') (A")
                 (A") (A") (A') (A") (A') (A') (A") (A") (A") (A')
                 (A") (A') (A") (A') (A") (A') (A") (A') (A") (A')
                 (A') (A") (A') (A') (A") (A') (A") (A') (A") (A')
                 (A") (A') (A') (A") (A") (A') (A') (A') (A") (A")
                 (A") (A') (A') (A") (A') (A') (A") (A') (A") (A')
                 (A") (A') (A') (A") (A") (A") (A') (A") (A') (A')
                 (A") (A') (A") (A") (A') (A") (A') (A') (A') (A")
                 (A") (A') (A") (A') (A") (A') (A") (A') (A') (A")
                 (A") (A') (A') (A") (A') (A") (A") (A') (A") (A')
[...]
                 (A") (A") (A')
       Virtual   (A') (A") (A") (A') (A') (A") (A') (A') (A') (A")
                 (A") (A') (A") (A') (A") (A') (A") (A") (A') (A")
                 (A') (A') (A") (A') (A") (A') (A') (A') (A') (A")
                 (A") (A") (A") (A') (A') (A") (A') (A") (A') (A")
                 (A') (A') (A') (A") (A') (A") (A") (A') (A') (A")
                 (A") (A') (A') (A") (A') (A") (A") (A") (A') (A")
                 (A') (A') (A') (A') (A') (A") (A') (A') (A") (A")
                 (A") (A') (A') (A') (A") (A') (A") (A") (A") (A')
                 (A') (A") (A') (A") (A") (A') (A") (A') (A') (A')
                 (A') (A') (A") (A") (A") (A") (A') (A") (A') (A")
                 (A') (A') (A') (A") (A") (A') (A') (A") (A') (A")
                 (A') (A") (A") (A") (A') (A') (A") (A') (A') (A")
                 (A') (A") (A") (A') (A') (A") (A') (A") (A') (A")
                 (A") (A') (A') (A') (A') (A") (A") (A") (A') (A")
                 (A') (A") (A') (A") (A') (A') (A") (A") (A') (A")
                 (A') (A") (A') (A") (A') (A') (A") (A') (A") (A")
                 (A') (A") (A') (A') (A") (A") (A') (A") (A') (A")
                 (A') (A') (A") (A') (A') (A") (A") (A') (A') (A')
                 (A") (A') (A") (A") (A") (A") (A') (A") (A') (A')
                 (A") (A') (A") (A') (A') (A') (A") (A') (A") (A')
                 (A") (A") (A') (A') (A") (A") (A') (A') (A") (A')
                 (A') (A') (A') (A") (A") (A") (A") (A') (A') (A")
                 (A') (A") (A") (A') (A") (A') (A") (A') (A") (A')
                 (A") (A') (A') (A") (A') (A") (A") (A') (A') (A")
                 (A") (A') (A') (A") (A") (A') (A") (A") (A") (A')
                 (A') (A") (A') (A') (A") (A') (A') (A") (A') (A")
                 (A") (A') (A") (A') (A') (A") (A") (A") (A') (A')
                 (A") (A') (A') (A") (A") (A") (A') (A") (A') (A')
                 (A") (A') (A") (A') (A") (A') (A') (A') (A") (A')
                 (A") (A") (A') (A') (A") (A") (A') (A") (A') (A")
                 (A') (A') (A") (A") (A') (A') (A") (A') (A') (A')
                 (A") (A") (A') (A") (A') (A") (A') (A") (A') (A')
                 (A') (A") (A") (A") (A') (A") (A') (A') (A') (A")
                 (A") (A') (A") (A') (A') (A") (A') (A") (A") (A')
                 (A') (A") (A') (A") (A") (A') (A') (A") (A') (A")
                 (A') (A") (A') (A") (A') (A") (A") (A') (A') (A")
                 (A') (A") (A') (A') (A") (A") (A') (A") (A') (A')
                 (A") (A') (A") (A') (A') (A") (A') (A") (A') (A")
                 (A") (A') (A") (A') (A") (A') (A") (A') (A') (A")
                 (A") (A') (A") (A') (A') (A") (A") (A') (A') (A")
                 (A') (A") (A') (A") (A') (A') (A")
 The electronic state is 1-A'.
 Alpha  occ. eigenvalues --  -10.18931 -10.18930 -10.18896 -10.18895 -10.18848
 Alpha  occ. eigenvalues --  -10.18848 -10.18813 -10.18813 -10.17956 -10.17955
 Alpha  occ. eigenvalues --  -10.17920 -10.17920 -10.17919 -10.17919 -10.17875
 Alpha  occ. eigenvalues --  -10.17875 -10.17863 -10.17863 -10.17808 -10.17808
 Alpha  occ. eigenvalues --  -10.17781 -10.17781  -0.89340  -0.87865  -0.85549
 Alpha  occ. eigenvalues --   -0.82415  -0.79820  -0.78521  -0.78314  -0.75991
 Alpha  occ. eigenvalues --   -0.74255  -0.72901  -0.69196  -0.67344  -0.62728
 Alpha  occ. eigenvalues --   -0.62370  -0.61108  -0.59964  -0.59301  -0.57689
 Alpha  occ. eigenvalues --   -0.52709  -0.52573  -0.52293  -0.49654  -0.48513
 Alpha  occ. eigenvalues --   -0.47160  -0.46110  -0.45590  -0.45476  -0.43928
 Alpha  occ. eigenvalues --   -0.43182  -0.42578  -0.41808  -0.41572  -0.41386
 Alpha  occ. eigenvalues --   -0.40692  -0.40405  -0.39579  -0.38193  -0.36732
 Alpha  occ. eigenvalues --   -0.36341  -0.35550  -0.34094  -0.33809  -0.33058
 Alpha  occ. eigenvalues --   -0.32930  -0.31612  -0.29665  -0.28406  -0.26623
 Alpha  occ. eigenvalues --   -0.24364  -0.22582  -0.17855
 Alpha virt. eigenvalues --   -0.09755  -0.04464  -0.02747  -0.00147   0.02073
 Alpha virt. eigenvalues --    0.02370   0.03189   0.04746   0.04859   0.04871
 Alpha virt. eigenvalues --    0.06161   0.06575   0.07968   0.08162   0.08303
 Alpha virt. eigenvalues --    0.09607   0.10049   0.11524   0.11533   0.13796
 Alpha virt. eigenvalues --    0.14111   0.14670   0.18092   0.18194   0.18832
 Alpha virt. eigenvalues --    0.19391   0.22815   0.23002   0.24379   0.24942
 Alpha virt. eigenvalues --    0.25581   0.27528   0.27575   0.28012   0.28228
 Alpha virt. eigenvalues --    0.28947   0.29389   0.30158   0.30759   0.31175
 Alpha virt. eigenvalues --    0.32897   0.34528   0.36420   0.36484   0.37134
 Alpha virt. eigenvalues --    0.37503   0.37629   0.37651   0.38116   0.38643
 Alpha virt. eigenvalues --    0.39094   0.39439   0.39739   0.40236   0.40435
 Alpha virt. eigenvalues --    0.41918   0.41926   0.41940   0.42289   0.42318
 Alpha virt. eigenvalues --    0.42643   0.43748   0.44233   0.44835   0.45295
 Alpha virt. eigenvalues --    0.45683   0.45924   0.45953   0.46379   0.47165
 Alpha virt. eigenvalues --    0.47805   0.47809   0.47978   0.48073   0.48231
 Alpha virt. eigenvalues --    0.48568   0.49414   0.49572   0.51377   0.51846
 Alpha virt. eigenvalues --    0.52370   0.53118   0.53671   0.55998   0.57923
 Alpha virt. eigenvalues --    0.57955   0.59048   0.59201   0.60433   0.60585
 Alpha virt. eigenvalues --    0.60693   0.61101   0.61690   0.62105   0.62173
 Alpha virt. eigenvalues --    0.63432   0.63481   0.64458   0.64535   0.65533
 Alpha virt. eigenvalues --    0.66693   0.66910   0.67680   0.67724   0.70658
 Alpha virt. eigenvalues --    0.71305   0.71405   0.71494   0.72803   0.73989
 Alpha virt. eigenvalues --    0.75405   0.75894   0.76289   0.77801   0.77809
 Alpha virt. eigenvalues --    0.78943   0.79160   0.79723   0.81162   0.81509
 Alpha virt. eigenvalues --    0.82881   0.83001   0.84383   0.84585   0.84713
 Alpha virt. eigenvalues --    0.88087   0.89711   0.89765   0.91536   0.92083
 Alpha virt. eigenvalues --    0.92578   0.93749   0.95806   0.96107   0.96442
 Alpha virt. eigenvalues --    0.96590   0.96905   0.98547   1.00356   1.01118
 Alpha virt. eigenvalues --    1.02686   1.03027   1.03354   1.04405   1.05244
 Alpha virt. eigenvalues --    1.05439   1.05525   1.05950   1.07395   1.07547
 Alpha virt. eigenvalues --    1.07686   1.08438   1.10005   1.10036   1.12070
 Alpha virt. eigenvalues --    1.13223   1.13544   1.13650   1.14526   1.15341
 Alpha virt. eigenvalues --    1.17432   1.18332   1.19657   1.20432   1.23014
 Alpha virt. eigenvalues --    1.23618   1.27884   1.28234   1.30579   1.32076
 Alpha virt. eigenvalues --    1.32743   1.34942   1.37641   1.39236   1.39896
 Alpha virt. eigenvalues --    1.39942   1.40725   1.42751   1.43476   1.43554
 Alpha virt. eigenvalues --    1.45057   1.46086   1.47119   1.47538   1.48841
 Alpha virt. eigenvalues --    1.49280   1.49417   1.50258   1.50674   1.52268
 Alpha virt. eigenvalues --    1.52650   1.53402   1.54331   1.54372   1.54781
 Alpha virt. eigenvalues --    1.54807   1.57107   1.57715   1.58569   1.59882
 Alpha virt. eigenvalues --    1.60106   1.62692   1.63242   1.64856   1.66641
 Alpha virt. eigenvalues --    1.69292   1.69605   1.69709   1.70649   1.71804
 Alpha virt. eigenvalues --    1.72459   1.72619   1.73075   1.73096   1.73680
 Alpha virt. eigenvalues --    1.77494   1.78519   1.79157   1.79419   1.80511
 Alpha virt. eigenvalues --    1.81616   1.81887   1.82058   1.83581   1.84039
 Alpha virt. eigenvalues --    1.85487   1.87392   1.87456   1.87577   1.87728
 Alpha virt. eigenvalues --    1.88131   1.88613   1.90743   1.91387   1.92190
 Alpha virt. eigenvalues --    1.92193   1.92572   1.92670   1.93517   1.93938
 Alpha virt. eigenvalues --    1.94544   1.95483   1.97262   1.99429   2.00088
 Alpha virt. eigenvalues --    2.00602   2.01362   2.03019   2.05757   2.08293
 Alpha virt. eigenvalues --    2.09111   2.09256   2.09792   2.12192   2.14098
 Alpha virt. eigenvalues --    2.15528   2.15584   2.17200   2.19751   2.20833
 Alpha virt. eigenvalues --    2.21576   2.22525   2.23381   2.24503   2.26441
 Alpha virt. eigenvalues --    2.26972   2.27242   2.27719   2.28046   2.29391
 Alpha virt. eigenvalues --    2.33301   2.35725   2.39155   2.39384   2.40817
 Alpha virt. eigenvalues --    2.42649   2.43076   2.45776   2.45994   2.46870
 Alpha virt. eigenvalues --    2.51623   2.51954   2.53354   2.53485   2.55138
 Alpha virt. eigenvalues --    2.56159   2.58701   2.58838   2.59764   2.59776
 Alpha virt. eigenvalues --    2.60682   2.61147   2.61719   2.62222   2.63349
 Alpha virt. eigenvalues --    2.63999   2.64478   2.66054   2.66794   2.67121
 Alpha virt. eigenvalues --    2.67374   2.68356   2.68872   2.68876   2.69372
 Alpha virt. eigenvalues --    2.69557   2.69907   2.70083   2.70281   2.73482
 Alpha virt. eigenvalues --    2.74771   2.74836   2.76066   2.77101   2.77577
 Alpha virt. eigenvalues --    2.78232   2.78455   2.78850   2.80822   2.82359
 Alpha virt. eigenvalues --    2.85535   2.85993   2.86737   2.87294   2.90966
 Alpha virt. eigenvalues --    2.91783   2.92195   2.93676   2.95232   2.95887
 Alpha virt. eigenvalues --    2.99270   2.99858   3.03165   3.05604   3.06852
 Alpha virt. eigenvalues --    3.07371   3.15988   3.16029   3.16647   3.19843
 Alpha virt. eigenvalues --    3.20017   3.23601   3.29134   3.29680   3.31610
 Alpha virt. eigenvalues --    3.35095   3.35458   3.35677   3.35858   3.38023
 Alpha virt. eigenvalues --    3.39887   3.41413   3.44960   3.45362   3.47993
 Alpha virt. eigenvalues --    3.48278   3.50401   3.53073   3.57439   3.58649
 Alpha virt. eigenvalues --    3.61466   3.62620   3.63208   3.63698   3.65910
 Alpha virt. eigenvalues --    3.67534   3.67678   4.00384   4.00442   4.01859
 Alpha virt. eigenvalues --    4.02182   4.16133   4.16678   4.17360   4.21240
 Alpha virt. eigenvalues --    4.22396   4.22517   4.25488   4.38492   4.62290
 Alpha virt. eigenvalues --    4.79179   4.79740   4.80562   4.82562   4.83014
 Alpha virt. eigenvalues --   23.39176  23.54541  23.69085  23.77378  23.80419
 Alpha virt. eigenvalues --   23.81537  23.86099  23.89067  23.89154  23.92210
 Alpha virt. eigenvalues --   23.97563  23.98365  24.09049  24.09932  24.10529
 Alpha virt. eigenvalues --   24.12220  24.13779  24.14375  24.15775  24.15810
 Alpha virt. eigenvalues --   24.20452  24.20497
          Condensed to atoms (all electrons):
 Mulliken charges:
               1
     1  C    0.000000
     2  C    0.000000
     3  C    0.000000
     4  C    0.000000
     5  C    0.000000
     6  C    0.000000
     7  C    0.000000
     8  C    0.000000
     9  C    0.000000
    10  C    0.000000
    11  H    0.000000
    12  H    0.000000
    13  H    0.000000
    14  H    0.000000
    15  H    0.000000
    16  H    0.000000
    17  C    0.000000
    18  C    0.000000
    19  C    0.000000
    20  C    0.000000
    21  H    0.000000
    22  H    0.000000
    23  C    0.000000
    24  C    0.000000
    25  C    0.000000
    26  C    0.000000
    27  H    0.000000
    28  H    0.000000
    29  C    0.000000
    30  C    0.000000
    31  C    0.000000
    32  C    0.000000
    33  H    0.000000
    34  H    0.000000
    35  H    0.000000
    36  H    0.000000
    37  C   -0.059168
    38  C   -0.059168
    39  C   -0.055977
    40  C   -0.055977
    41  C   -0.092198
    42  C   -0.092198
    43  C   -0.016525
    44  C   -0.054498
    45  C   -0.016525
    46  C   -0.054498
    47  H    0.082122
    48  H    0.074853
    49  H    0.074853
    50  H    0.082122
    51  H    0.094847
    52  H    0.094847
    53  C   -0.020341
    54  C   -0.054498
    55  C   -0.020341
    56  C   -0.054498
    57  H    0.073428
    58  H    0.073428
    59  C   -0.016525
    60  C   -0.059168
    61  C   -0.016525
    62  C   -0.059168
    63  H    0.074853
    64  H    0.074853
    65  C   -0.055977
    66  C   -0.092198
    67  C   -0.055977
    68  C   -0.092198
    69  H    0.082122
    70  H    0.094847
    71  H    0.094847
    72  H    0.082122
 Sum of Mulliken charges =   0.00000
 Mulliken charges with hydrogens summed into heavy atoms:
               1
     1  C    0.000000
     2  C    0.000000
     3  C    0.000000
     4  C    0.000000
     5  C    0.000000
     6  C    0.000000
     7  C    0.000000
     8  C    0.000000
     9  C    0.000000
    10  C    0.000000
    17  C    0.000000
    18  C    0.000000
    19  C    0.000000
    20  C    0.000000
    23  C    0.000000
    24  C    0.000000
    25  C    0.000000
    26  C    0.000000
    29  C    0.000000
    30  C    0.000000
    31  C    0.000000
    32  C    0.000000
    37  C   -0.059168
    38  C   -0.059168
    39  C    0.026144
    40  C    0.026144
    41  C    0.002649
    42  C    0.002649
    43  C    0.058328
    44  C   -0.054498
    45  C    0.058328
    46  C   -0.054498
    53  C    0.053087
    54  C   -0.054498
    55  C    0.053087
    56  C   -0.054498
    59  C    0.058328
    60  C   -0.059168
    61  C    0.058328
    62  C   -0.059168
    65  C    0.026144
    66  C    0.002649
    67  C    0.026144
    68  C    0.002649
         Mulliken charges condensed to fragments:
      1      0.000000
      2      0.000000
 Electronic spatial extent (au):  <R**2>=          16630.0278
 Charge=              0.0000 electrons
 Dipole moment (field-independent basis, Debye):
    X=              0.0000    Y=              0.0000    Z=              0.0000  Tot=              0.0000
 Quadrupole moment (field-independent basis, Debye-Ang):
   XX=           -136.3921   YY=           -110.7480   ZZ=           -109.0115
   XY=              0.0000   XZ=              0.0000   YZ=              0.0000
 Traceless Quadrupole moment (field-independent basis, Debye-Ang):
   XX=            -17.6749   YY=              7.9692   ZZ=              9.7057
   XY=              0.0000   XZ=              0.0000   YZ=              0.0000
 Octapole moment (field-independent basis, Debye-Ang**2):
  XXX=           1084.9922  YYY=            880.9952  ZZZ=              0.0000  XYY=            293.6651
  XXY=            361.6641  XXZ=              0.0000  XZZ=            289.0603  YZZ=            289.0603
  YYZ=              0.0000  XYZ=              0.0000
 Hexadecapole moment (field-independent basis, Debye-Ang**3):
 XXXX=          -5908.4439 YYYY=          -5788.8994 ZZZZ=         -10461.4324 XXXY=          -2877.0200
 XXXZ=              0.0000 YYYX=          -2336.0913 YYYZ=              0.0000 ZZZX=              0.0000
 ZZZY=              0.0000 XXYY=          -1994.1191 XXZZ=          -2974.4189 YYZZ=          -2735.7013
 XXYZ=              0.0000 YYXZ=              0.0000 ZZXY=           -766.4869
 N-N= 1.494327114189D+03 E-N=-4.953709180016D+03  KE= 8.433374905996D+02
 Symmetry A'   KE= 4.567052305803D+02
 Symmetry A"   KE= 3.866322600193D+02
 No NMR shielding tensors so no spin-rotation constants.
 Leave Link  601 at Wed Sep 27 17:16:14 2023, MaxMem=  3221225472 cpu:              19.7 elap:               0.5
 (Enter /home/center/opt/aarch64/apps/gaussian16/c01/g16/l122.exe)
 CPIOFr:  IOpCl= 0 IRwI=-1 IRwCP=  731 ICalc=  4 LCPTot=     1419224 Len1MO=     3708034 IndFrg=    19959394
 Restoring MOs from calculation   1 to rwf.
 CPIOFr:  IOpCl= 0 IRwI=-2 IRwCP=  731 ICalc=  0 LCPTot=     1419224 Len1MO=     3708034 IndFrg=     5127258
 Counterpoise corrected energy =   -1694.042168776012
                   BSSE energy =       0.000088993671
              sum of fragments =   -1694.039683044257
           complexation energy =      -1.62 kcal/mole (raw)
           complexation energy =      -1.56 kcal/mole (corrected)
 Leave Link  122 at Wed Sep 27 17:16:16 2023, MaxMem=  3221225472 cpu:               8.3 elap:               0.3
 (Enter /home/center/opt/aarch64/apps/gaussian16/c01/g16/l9999.exe)

 Test job not archived.
 1\1\GINC-FX0528\SP\RB3LYP\6-311G(d,p)\C44H28\Z40145W\27-Sep-2023\0\\#P
  TEST b3lyp/6-311G** EmpiricalDispersion=GD3 counterpoise=2\\pentacene
 _A1=0_A2=0_A3=45_p2\\0,1\C,0,-0.5039478476,0.5239478476,-3.6612755801\
 C,0,0.5239480325,-0.5039480325,-3.6612755629\C,0,-0.9861248463,1.00612
 48463,-4.9235927708\C,0,1.0061250889,-0.9861250889,-4.9235926697\C,0,-
 0.4963213507,0.5163213507,-6.096356521\C,0,0.5163216812,-0.4963216812,
 -6.0963564796\C,0,-0.9844684311,1.0044684311,-2.4533174875\C,0,-0.5044
 88426,0.524488426,-1.2140288145\C,0,1.0044685359,-0.9844685359,-2.4533
 173917\C,0,0.5244885437,-0.5044885437,-1.2140288362\H,0,-1.7533559667,
 1.7733559667,-4.9232600459\H,0,-1.7521866813,1.7721866813,-2.453928581
 5\H,0,1.7721859268,-1.7521859268,-2.4539284818\H,0,1.7733558421,-1.753
 3558421,-4.9232597785\H,0,0.8905568758,-0.8705568758,-7.0425276922\H,0
 ,-0.8705565046,0.8905565046,-7.042527775\C,0,-0.9848184961,1.004818496
 1,0.0099998782\C,0,-0.5044883957,0.5244883957,1.2340295553\C,0,1.00481
 85643,-0.9848185643,0.0099998696\C,0,0.5244885146,-0.5044885146,1.2340
 295261\H,0,-1.7524699697,1.7724699697,0.0099999205\H,0,1.772468921,-1.
 752468921,0.0099999641\C,0,-0.9844683048,1.0044683048,2.4733171385\C,0
 ,-0.5039477114,0.5239477114,3.681276331\C,0,1.0044684211,-0.9844684211
 ,2.4733170835\C,0,0.5239479079,-0.5039479079,3.6812763217\H,0,-1.75218
 65527,1.7721865527,2.4739285326\H,0,1.7721858092,-1.7521858092,2.47392
 83796\C,0,-0.9861245177,1.0061245177,4.9435920588\C,0,-0.4963209372,0.
 5163209372,6.116356633\C,0,1.0061247659,-0.9861247659,4.9435919377\C,0
 ,0.5163212637,-0.4963212637,6.1163566075\H,0,-1.7533556504,1.773355650
 4,4.9432601504\H,0,-0.8705567426,0.8905567426,7.0625274368\H,0,0.89055
 70967,-0.8705570967,7.0625272142\H,0,1.7733555414,-1.7533555414,4.9432
 599297\C,0,6.9960521524,0.5239478476,-3.6612755801\C,0,8.0239480325,-0
 .5039480325,-3.6612755629\C,0,6.5138751537,1.0061248463,-4.9235927708\
 C,0,8.5061250889,-0.9861250889,-4.9235926697\C,0,7.0036786493,0.516321
 3507,-6.096356521\C,0,8.0163216812,-0.4963216812,-6.0963564796\C,0,6.5
 155315689,1.0044684311,-2.4533174875\C,0,6.995511574,0.524488426,-1.21
 40288145\C,0,8.5044685359,-0.9844685359,-2.4533173917\C,0,8.0244885437
 ,-0.5044885437,-1.2140288362\H,0,5.7466440333,1.7733559667,-4.92326004
 59\H,0,5.7478133187,1.7721866813,-2.4539285815\H,0,9.2721859268,-1.752
 1859268,-2.4539284818\H,0,9.2733558421,-1.7533558421,-4.9232597785\H,0
 ,8.3905568758,-0.8705568758,-7.0425276922\H,0,6.6294434954,0.890556504
 6,-7.042527775\C,0,6.5151815039,1.0048184961,0.0099998782\C,0,6.995511
 6043,0.5244883957,1.2340295553\C,0,8.5048185643,-0.9848185643,0.009999
 8696\C,0,8.0244885146,-0.5044885146,1.2340295261\H,0,5.7475300303,1.77
 24699697,0.0099999205\H,0,9.272468921,-1.752468921,0.0099999641\C,0,6.
 5155316952,1.0044683048,2.4733171385\C,0,6.9960522886,0.5239477114,3.6
 81276331\C,0,8.5044684211,-0.9844684211,2.4733170835\C,0,8.0239479079,
 -0.5039479079,3.6812763217\H,0,5.7478134473,1.7721865527,2.4739285326\
 H,0,9.2721858092,-1.7521858092,2.4739283796\C,0,6.5138754823,1.0061245
 177,4.9435920588\C,0,7.0036790628,0.5163209372,6.116356633\C,0,8.50612
 47659,-0.9861247659,4.9435919377\C,0,8.0163212637,-0.4963212637,6.1163
 566075\H,0,5.7466443496,1.7733556504,4.9432601504\H,0,6.6294432574,0.8
 905567426,7.0625274368\H,0,8.3905570967,-0.8705570967,7.0625272142\H,0
 ,9.2733555414,-1.7533555414,4.9432599297\\Version=Fujitsu-Arm-G16RevC.
 01\State=1-A'\HF=-847.0198415\RMSD=3.176e-09\Dipole=0.000013,-0.000013
 ,0.\Quadrupole=-7.9754821,-6.3753079,14.35079,-18.2267041,0.,0.\PG=CS 
 [SG(C4H4),X(C40H24)]\\@


 THE ONLY EXISTING THINGS ARE ATOMS AND EMPTY SPACE;
 ALL ELSE IS MERE OPINION. -- DEMOCRITUS OF ABDERA D. 370 B.C.
 EXPERIMENTS ARE THE ONLY MEANS OF KNOWLEDGE AT OUR DISPOSAL
 THE REST IS POETRY, IMAGINATION. -- MAX PLANCK
 Job cpu time:       0 days  2 hours 49 minutes 37.3 seconds.
 Elapsed time:       0 days  0 hours  4 minutes 28.7 seconds.
 File lengths (MBytes):  RWF=    718 Int=      0 D2E=      0 Chk=    208 Scr=      1
 Normal termination of Gaussian 16 at Wed Sep 27 17:16:22 2023.
