 Entering Gaussian System, Link 0=g16
 Initial command:
 /home/center/opt/aarch64/apps/gaussian16/c01/g16/l1.exe "/data/tmp/Gtmp/1006913/Gau-50.inp" -scrdir="/data/tmp/Gtmp/1006913/"
 Entering Link 1 = /home/center/opt/aarch64/apps/gaussian16/c01/g16/l1.exe PID=        51.
  
 Copyright (c) 1988-2019, Gaussian, Inc.  All Rights Reserved.
  
 This is part of the Gaussian(R) 16 program.  It is based on
 the Gaussian(R) 09 system (copyright 2009, Gaussian, Inc.),
 the Gaussian(R) 03 system (copyright 2003, Gaussian, Inc.),
 the Gaussian(R) 98 system (copyright 1998, Gaussian, Inc.),
 the Gaussian(R) 94 system (copyright 1995, Gaussian, Inc.),
 the Gaussian 92(TM) system (copyright 1992, Gaussian, Inc.),
 the Gaussian 90(TM) system (copyright 1990, Gaussian, Inc.),
 the Gaussian 88(TM) system (copyright 1988, Gaussian, Inc.),
 the Gaussian 86(TM) system (copyright 1986, Carnegie Mellon
 University), and the Gaussian 82(TM) system (copyright 1983,
 Carnegie Mellon University). Gaussian is a federally registered
 trademark of Gaussian, Inc.
  
 This software contains proprietary and confidential information,
 including trade secrets, belonging to Gaussian, Inc.
  
 This software is provided under written license and may be
 used, copied, transmitted, or stored only in accord with that
 written license.
  
 The following legend is applicable only to US Government
 contracts under FAR:
  
                    RESTRICTED RIGHTS LEGEND
  
 Use, reproduction and disclosure by the US Government is
 subject to restrictions as set forth in subparagraphs (a)
 and (c) of the Commercial Computer Software - Restricted
 Rights clause in FAR 52.227-19.
  
 Gaussian, Inc.
 340 Quinnipiac St., Bldg. 40, Wallingford CT 06492
  
  
 ---------------------------------------------------------------
 Warning -- This program may not be used in any manner that
 competes with the business of Gaussian, Inc. or will provide
 assistance to any competitor of Gaussian, Inc.  The licensee
 of this program is prohibited from giving any competitor of
 Gaussian, Inc. access to this program.  By using this program,
 the user acknowledges that Gaussian, Inc. is engaged in the
 business of creating and licensing software in the field of
 computational chemistry and represents and warrants to the
 licensee that it is not a competitor of Gaussian, Inc. and that
 it will not use this program in any manner prohibited above.
 ---------------------------------------------------------------
  

 Cite this work as:
 Gaussian 16, Revision C.01,
 M. J. Frisch, G. W. Trucks, H. B. Schlegel, G. E. Scuseria, 
 M. A. Robb, J. R. Cheeseman, G. Scalmani, V. Barone, 
 G. A. Petersson, H. Nakatsuji, X. Li, M. Caricato, A. V. Marenich, 
 J. Bloino, B. G. Janesko, R. Gomperts, B. Mennucci, H. P. Hratchian, 
 J. V. Ortiz, A. F. Izmaylov, J. L. Sonnenberg, D. Williams-Young, 
 F. Ding, F. Lipparini, F. Egidi, J. Goings, B. Peng, A. Petrone, 
 T. Henderson, D. Ranasinghe, V. G. Zakrzewski, J. Gao, N. Rega, 
 G. Zheng, W. Liang, M. Hada, M. Ehara, K. Toyota, R. Fukuda, 
 J. Hasegawa, M. Ishida, T. Nakajima, Y. Honda, O. Kitao, H. Nakai, 
 T. Vreven, K. Throssell, J. A. Montgomery, Jr., J. E. Peralta, 
 F. Ogliaro, M. J. Bearpark, J. J. Heyd, E. N. Brothers, K. N. Kudin, 
 V. N. Staroverov, T. A. Keith, R. Kobayashi, J. Normand, 
 K. Raghavachari, A. P. Rendell, J. C. Burant, S. S. Iyengar, 
 J. Tomasi, M. Cossi, J. M. Millam, M. Klene, C. Adamo, R. Cammi, 
 J. W. Ochterski, R. L. Martin, K. Morokuma, O. Farkas, 
 J. B. Foresman, and D. J. Fox, Gaussian, Inc., Wallingford CT, 2019.
 
 ************************************************
 Gaussian 16:  Fujitsu-Arm-G16RevC.01  3-Jul-2019
                   27-Sep-2023 
 ************************************************
 %mem=24GB
 %nproc=42
 Will use up to   42 processors via shared memory.
 -------------------------------------------------------------
 #P TEST b3lyp/6-311G** EmpiricalDispersion=GD3 counterpoise=2
 -------------------------------------------------------------
 1/38=1,62=2,172=1/1;
 2/12=2,17=6,18=5,40=1/2;
 1/38=1,53=2,62=2,63=1/22;
 3/5=4,6=6,7=101,11=2,25=1,30=1,74=-5,124=31/1,2,3;
 4//1;
 5/5=2,38=5/2;
 6/7=2,8=2,9=2,10=2,28=1/1;
 1/53=2,62=2,63=1/22;
 3/5=7,6=11,7=101,11=2,25=1,30=1,74=-5,82=7,124=31/1,2,3;
 4//1;
 5/5=2,38=5/2;
 6/7=2,8=2,9=2,10=2,28=1/1;
 1/53=2,62=2,63=1/22(-4);
 99/5=1,9=1/99;
 Leave Link    1 at Wed Sep 27 16:37:34 2023, MaxMem=  3221225472 cpu:               6.1 elap:               0.2
 (Enter /home/center/opt/aarch64/apps/gaussian16/c01/g16/l101.exe)
 ----------------------------
 pentacene_A1=0_A2=0_A3=45_t1
 ----------------------------
 Symbolic Z-matrix:
 Charge =  0 Multiplicity = 1 in supermolecule
 Charge =  0 Multiplicity = 1 in fragment      1.
 Charge =  0 Multiplicity = 1 in fragment      2.
 C(Fragment=1)        -0.50395   0.52395  -3.66128 
 C(Fragment=1)         0.52395  -0.50395  -3.66128 
 C(Fragment=1)        -0.98612   1.00612  -4.92359 
 C(Fragment=1)         1.00613  -0.98613  -4.92359 
 C(Fragment=1)        -0.49632   0.51632  -6.09636 
 C(Fragment=1)         0.51632  -0.49632  -6.09636 
 C(Fragment=1)        -0.98447   1.00447  -2.45332 
 C(Fragment=1)        -0.50449   0.52449  -1.21403 
 C(Fragment=1)         1.00447  -0.98447  -2.45332 
 C(Fragment=1)         0.52449  -0.50449  -1.21403 
 H(Fragment=1)        -1.75336   1.77336  -4.92326 
 H(Fragment=1)        -1.75219   1.77219  -2.45393 
 H(Fragment=1)         1.77219  -1.75219  -2.45393 
 H(Fragment=1)         1.77336  -1.75336  -4.92326 
 H(Fragment=1)         0.89056  -0.87056  -7.04253 
 H(Fragment=1)        -0.87056   0.89056  -7.04253 
 C(Fragment=1)        -0.98482   1.00482   0.01 
 C(Fragment=1)        -0.50449   0.52449   1.23403 
 C(Fragment=1)         1.00482  -0.98482   0.01 
 C(Fragment=1)         0.52449  -0.50449   1.23403 
 H(Fragment=1)        -1.75247   1.77247   0.01 
 H(Fragment=1)         1.77247  -1.75247   0.01 
 C(Fragment=1)        -0.98447   1.00447   2.47332 
 C(Fragment=1)        -0.50395   0.52395   3.68128 
 C(Fragment=1)         1.00447  -0.98447   2.47332 
 C(Fragment=1)         0.52395  -0.50395   3.68128 
 H(Fragment=1)        -1.75219   1.77219   2.47393 
 H(Fragment=1)         1.77219  -1.75219   2.47393 
 C(Fragment=1)        -0.98612   1.00612   4.94359 
 C(Fragment=1)        -0.49632   0.51632   6.11636 
 C(Fragment=1)         1.00612  -0.98612   4.94359 
 C(Fragment=1)         0.51632  -0.49632   6.11636 
 H(Fragment=1)        -1.75336   1.77336   4.94326 
 H(Fragment=1)        -0.87056   0.89056   7.06253 
 H(Fragment=1)         0.89056  -0.87056   7.06253 
 H(Fragment=1)         1.77336  -1.75336   4.94326 
 C(Fragment=2)         2.52395   5.27395  -3.66128 
 C(Fragment=2)         1.49605   4.24605  -3.66128 
 C(Fragment=2)         3.00612   5.75612  -4.92359 
 C(Fragment=2)         1.01387   3.76387  -4.92359 
 C(Fragment=2)         2.51632   5.26632  -6.09636 
 C(Fragment=2)         1.50368   4.25368  -6.09636 
 C(Fragment=2)         3.00447   5.75447  -2.45332 
 C(Fragment=2)         2.52449   5.27449  -1.21403 
 C(Fragment=2)         1.01553   3.76553  -2.45332 
 C(Fragment=2)         1.49551   4.24551  -1.21403 
 H(Fragment=2)         3.77336   6.52336  -4.92326 
 H(Fragment=2)         3.77219   6.52219  -2.45393 
 H(Fragment=2)         0.24781   2.99781  -2.45393 
 H(Fragment=2)         0.24664   2.99664  -4.92326 
 H(Fragment=2)         1.12944   3.87944  -7.04253 
 H(Fragment=2)         2.89056   5.64056  -7.04253 
 C(Fragment=2)         3.00482   5.75482   0.01 
 C(Fragment=2)         2.52449   5.27449   1.23403 
 C(Fragment=2)         1.01518   3.76518   0.01 
 C(Fragment=2)         1.49551   4.24551   1.23403 
 H(Fragment=2)         3.77247   6.52247   0.01 
 H(Fragment=2)         0.24753   2.99753   0.01 
 C(Fragment=2)         3.00447   5.75447   2.47332 
 C(Fragment=2)         2.52395   5.27395   3.68128 
 C(Fragment=2)         1.01553   3.76553   2.47332 
 C(Fragment=2)         1.49605   4.24605   3.68128 
 H(Fragment=2)         3.77219   6.52219   2.47393 
 H(Fragment=2)         0.24781   2.99781   2.47393 
 C(Fragment=2)         3.00612   5.75612   4.94359 
 C(Fragment=2)         2.51632   5.26632   6.11636 
 C(Fragment=2)         1.01388   3.76388   4.94359 
 C(Fragment=2)         1.50368   4.25368   6.11636 
 H(Fragment=2)         3.77336   6.52336   4.94326 
 H(Fragment=2)         2.89056   5.64056   7.06253 
 H(Fragment=2)         1.12944   3.87944   7.06253 
 H(Fragment=2)         0.24664   2.99664   4.94326 
 
 ITRead=  0  0  0  0  0  0  0  0  0  0  0  0  0  0  0  0  0  0  0  0
 ITRead=  0  0  0  0  0  0  0  0  0  0  0  0  0  0  0  0  0  0  0  0
 ITRead=  0  0  0  0  0  0  0  0  0  0  0  0  0  0  0  0  0  0  0  0
 ITRead=  0  0  0  0  0  0  0  0  0  0  0  0
 MicOpt= -1 -1 -1 -1 -1 -1 -1 -1 -1 -1 -1 -1 -1 -1 -1 -1 -1 -1 -1 -1
 MicOpt= -1 -1 -1 -1 -1 -1 -1 -1 -1 -1 -1 -1 -1 -1 -1 -1 -1 -1 -1 -1
 MicOpt= -1 -1 -1 -1 -1 -1 -1 -1 -1 -1 -1 -1 -1 -1 -1 -1 -1 -1 -1 -1
 MicOpt= -1 -1 -1 -1 -1 -1 -1 -1 -1 -1 -1 -1
 NAtoms=     72 NQM=       72 NQMF=       0 NMMI=      0 NMMIF=      0
                NMic=       0 NMicF=      0.
                    Isotopes and Nuclear Properties:
 (Nuclear quadrupole moments (NQMom) in fm**2, nuclear magnetic moments (NMagM)
  in nuclear magnetons)

  Atom         1           2           3           4           5           6           7           8           9          10
 IAtWgt=          12          12          12          12          12          12          12          12          12          12
 AtmWgt=  12.0000000  12.0000000  12.0000000  12.0000000  12.0000000  12.0000000  12.0000000  12.0000000  12.0000000  12.0000000
 NucSpn=           0           0           0           0           0           0           0           0           0           0
 AtZEff=   0.0000000   0.0000000   0.0000000   0.0000000   0.0000000   0.0000000   0.0000000   0.0000000   0.0000000   0.0000000
 NQMom=    0.0000000   0.0000000   0.0000000   0.0000000   0.0000000   0.0000000   0.0000000   0.0000000   0.0000000   0.0000000
 NMagM=    0.0000000   0.0000000   0.0000000   0.0000000   0.0000000   0.0000000   0.0000000   0.0000000   0.0000000   0.0000000
 AtZNuc=   6.0000000   6.0000000   6.0000000   6.0000000   6.0000000   6.0000000   6.0000000   6.0000000   6.0000000   6.0000000

  Atom        11          12          13          14          15          16          17          18          19          20
 IAtWgt=           1           1           1           1           1           1          12          12          12          12
 AtmWgt=   1.0078250   1.0078250   1.0078250   1.0078250   1.0078250   1.0078250  12.0000000  12.0000000  12.0000000  12.0000000
 NucSpn=           1           1           1           1           1           1           0           0           0           0
 AtZEff=   0.0000000   0.0000000   0.0000000   0.0000000   0.0000000   0.0000000   0.0000000   0.0000000   0.0000000   0.0000000
 NQMom=    0.0000000   0.0000000   0.0000000   0.0000000   0.0000000   0.0000000   0.0000000   0.0000000   0.0000000   0.0000000
 NMagM=    2.7928460   2.7928460   2.7928460   2.7928460   2.7928460   2.7928460   0.0000000   0.0000000   0.0000000   0.0000000
 AtZNuc=   1.0000000   1.0000000   1.0000000   1.0000000   1.0000000   1.0000000   6.0000000   6.0000000   6.0000000   6.0000000

  Atom        21          22          23          24          25          26          27          28          29          30
 IAtWgt=           1           1          12          12          12          12           1           1          12          12
 AtmWgt=   1.0078250   1.0078250  12.0000000  12.0000000  12.0000000  12.0000000   1.0078250   1.0078250  12.0000000  12.0000000
 NucSpn=           1           1           0           0           0           0           1           1           0           0
 AtZEff=   0.0000000   0.0000000   0.0000000   0.0000000   0.0000000   0.0000000   0.0000000   0.0000000   0.0000000   0.0000000
 NQMom=    0.0000000   0.0000000   0.0000000   0.0000000   0.0000000   0.0000000   0.0000000   0.0000000   0.0000000   0.0000000
 NMagM=    2.7928460   2.7928460   0.0000000   0.0000000   0.0000000   0.0000000   2.7928460   2.7928460   0.0000000   0.0000000
 AtZNuc=   1.0000000   1.0000000   6.0000000   6.0000000   6.0000000   6.0000000   1.0000000   1.0000000   6.0000000   6.0000000

  Atom        31          32          33          34          35          36          37          38          39          40
 IAtWgt=          12          12           1           1           1           1          12          12          12          12
 AtmWgt=  12.0000000  12.0000000   1.0078250   1.0078250   1.0078250   1.0078250  12.0000000  12.0000000  12.0000000  12.0000000
 NucSpn=           0           0           1           1           1           1           0           0           0           0
 AtZEff=   0.0000000   0.0000000   0.0000000   0.0000000   0.0000000   0.0000000   0.0000000   0.0000000   0.0000000   0.0000000
 NQMom=    0.0000000   0.0000000   0.0000000   0.0000000   0.0000000   0.0000000   0.0000000   0.0000000   0.0000000   0.0000000
 NMagM=    0.0000000   0.0000000   2.7928460   2.7928460   2.7928460   2.7928460   0.0000000   0.0000000   0.0000000   0.0000000
 AtZNuc=   6.0000000   6.0000000   1.0000000   1.0000000   1.0000000   1.0000000   6.0000000   6.0000000   6.0000000   6.0000000

  Atom        41          42          43          44          45          46          47          48          49          50
 IAtWgt=          12          12          12          12          12          12           1           1           1           1
 AtmWgt=  12.0000000  12.0000000  12.0000000  12.0000000  12.0000000  12.0000000   1.0078250   1.0078250   1.0078250   1.0078250
 NucSpn=           0           0           0           0           0           0           1           1           1           1
 AtZEff=   0.0000000   0.0000000   0.0000000   0.0000000   0.0000000   0.0000000   0.0000000   0.0000000   0.0000000   0.0000000
 NQMom=    0.0000000   0.0000000   0.0000000   0.0000000   0.0000000   0.0000000   0.0000000   0.0000000   0.0000000   0.0000000
 NMagM=    0.0000000   0.0000000   0.0000000   0.0000000   0.0000000   0.0000000   2.7928460   2.7928460   2.7928460   2.7928460
 AtZNuc=   6.0000000   6.0000000   6.0000000   6.0000000   6.0000000   6.0000000   1.0000000   1.0000000   1.0000000   1.0000000

  Atom        51          52          53          54          55          56          57          58          59          60
 IAtWgt=           1           1          12          12          12          12           1           1          12          12
 AtmWgt=   1.0078250   1.0078250  12.0000000  12.0000000  12.0000000  12.0000000   1.0078250   1.0078250  12.0000000  12.0000000
 NucSpn=           1           1           0           0           0           0           1           1           0           0
 AtZEff=   0.0000000   0.0000000   0.0000000   0.0000000   0.0000000   0.0000000   0.0000000   0.0000000   0.0000000   0.0000000
 NQMom=    0.0000000   0.0000000   0.0000000   0.0000000   0.0000000   0.0000000   0.0000000   0.0000000   0.0000000   0.0000000
 NMagM=    2.7928460   2.7928460   0.0000000   0.0000000   0.0000000   0.0000000   2.7928460   2.7928460   0.0000000   0.0000000
 AtZNuc=   1.0000000   1.0000000   6.0000000   6.0000000   6.0000000   6.0000000   1.0000000   1.0000000   6.0000000   6.0000000

  Atom        61          62          63          64          65          66          67          68          69          70
 IAtWgt=          12          12           1           1          12          12          12          12           1           1
 AtmWgt=  12.0000000  12.0000000   1.0078250   1.0078250  12.0000000  12.0000000  12.0000000  12.0000000   1.0078250   1.0078250
 NucSpn=           0           0           1           1           0           0           0           0           1           1
 AtZEff=   0.0000000   0.0000000   0.0000000   0.0000000   0.0000000   0.0000000   0.0000000   0.0000000   0.0000000   0.0000000
 NQMom=    0.0000000   0.0000000   0.0000000   0.0000000   0.0000000   0.0000000   0.0000000   0.0000000   0.0000000   0.0000000
 NMagM=    0.0000000   0.0000000   2.7928460   2.7928460   0.0000000   0.0000000   0.0000000   0.0000000   2.7928460   2.7928460
 AtZNuc=   6.0000000   6.0000000   1.0000000   1.0000000   6.0000000   6.0000000   6.0000000   6.0000000   1.0000000   1.0000000

  Atom        71          72
 IAtWgt=           1           1
 AtmWgt=   1.0078250   1.0078250
 NucSpn=           1           1
 AtZEff=   0.0000000   0.0000000
 NQMom=    0.0000000   0.0000000
 NMagM=    2.7928460   2.7928460
 AtZNuc=   1.0000000   1.0000000
 Leave Link  101 at Wed Sep 27 16:37:36 2023, MaxMem=  3221225472 cpu:               3.6 elap:               0.2
 (Enter /home/center/opt/aarch64/apps/gaussian16/c01/g16/l202.exe)
 Stoichiometry    C44H28
 Framework group  CS[SG(C4H4),X(C40H24)]
 Deg. of freedom   109
 Full point group                 CS      NOp   2
 Largest Abelian subgroup         CS      NOp   2
 Largest concise Abelian subgroup CS      NOp   2
                         Standard orientation:                         
 ---------------------------------------------------------------------
 Center     Atomic      Atomic             Coordinates (Angstroms)
 Number     Number       Type             X           Y           Z
 ---------------------------------------------------------------------
      1          6           0        2.386485   -0.245440    3.671276
      2          6           0        2.386485   -1.699104    3.671276
      3          6           0        2.386485    0.436461    4.933593
      4          6           0        2.386485   -2.381005    4.933593
      5          6           0        2.386485   -0.256225    6.106357
      6          6           0        2.386485   -1.688319    6.106357
      7          6           0        2.386485    0.434119    2.463318
      8          6           0        2.386485   -0.244675    1.224029
      9          6           0        2.386485   -2.378663    2.463317
     10          6           0        2.386485   -1.699868    1.224029
     11          1           0        2.386485    1.521490    4.933260
     12          1           0        2.386485    1.519837    2.463929
     13          1           0        2.386485   -3.464379    2.463929
     14          1           0        2.386485   -3.466034    4.933260
     15          1           0        2.386485   -2.217567    7.052528
     16          1           0        2.386485    0.273023    7.052528
     17          6           0        2.386485    0.434614    0.000000
     18          6           0        2.386485   -0.244675   -1.224029
     19          6           0        2.386485   -2.379158    0.000000
     20          6           0        2.386485   -1.699868   -1.224029
     21          1           0        2.386485    1.520237    0.000000
     22          1           0        2.386485   -3.464779    0.000000
     23          6           0        2.386485    0.434119   -2.463318
     24          6           0        2.386485   -0.245440   -3.671276
     25          6           0        2.386485   -2.378663   -2.463317
     26          6           0        2.386485   -1.699104   -3.671276
     27          1           0        2.386485    1.519837   -2.463929
     28          1           0        2.386485   -3.464379   -2.463929
     29          6           0        2.386485    0.436461   -4.933593
     30          6           0        2.386485   -0.256225   -6.106357
     31          6           0        2.386485   -2.381005   -4.933593
     32          6           0        2.386485   -1.688319   -6.106357
     33          1           0        2.386485    1.521490   -4.933260
     34          1           0        2.386485    0.273023   -7.052528
     35          1           0        2.386485   -2.217567   -7.052528
     36          1           0        2.386485   -3.466034   -4.933260
     37          6           0       -3.113317    0.972272    3.671276
     38          6           0       -1.659653    0.972272    3.671276
     39          6           0       -3.795219    0.972272    4.933593
     40          6           0       -0.977752    0.972272    4.933593
     41          6           0       -3.102532    0.972272    6.106357
     42          6           0       -1.670438    0.972272    6.106357
     43          6           0       -3.792876    0.972272    2.463318
     44          6           0       -3.114082    0.972272    1.224029
     45          6           0       -0.980095    0.972272    2.463317
     46          6           0       -1.658889    0.972272    1.224029
     47          1           0       -4.880247    0.972272    4.933260
     48          1           0       -4.878594    0.972272    2.463929
     49          1           0        0.105622    0.972272    2.463929
     50          1           0        0.107276    0.972272    4.933260
     51          1           0       -1.141190    0.972272    7.052528
     52          1           0       -3.631780    0.972272    7.052528
     53          6           0       -3.793371    0.972272    0.000000
     54          6           0       -3.114082    0.972272   -1.224029
     55          6           0       -0.979600    0.972272    0.000000
     56          6           0       -1.658889    0.972272   -1.224029
     57          1           0       -4.878994    0.972272    0.000000
     58          1           0        0.106022    0.972272    0.000000
     59          6           0       -3.792876    0.972272   -2.463318
     60          6           0       -3.113317    0.972272   -3.671276
     61          6           0       -0.980095    0.972272   -2.463317
     62          6           0       -1.659653    0.972272   -3.671276
     63          1           0       -4.878594    0.972272   -2.463929
     64          1           0        0.105622    0.972272   -2.463929
     65          6           0       -3.795219    0.972272   -4.933593
     66          6           0       -3.102532    0.972272   -6.106357
     67          6           0       -0.977752    0.972272   -4.933593
     68          6           0       -1.670438    0.972272   -6.106357
     69          1           0       -4.880247    0.972272   -4.933260
     70          1           0       -3.631780    0.972272   -7.052528
     71          1           0       -1.141190    0.972272   -7.052528
     72          1           0        0.107276    0.972272   -4.933260
 ---------------------------------------------------------------------
 Rotational constants (GHZ):           0.1133755           0.0563744           0.0399246
 Leave Link  202 at Wed Sep 27 16:37:39 2023, MaxMem=  3221225472 cpu:               0.6 elap:               0.0
 (Enter /home/center/opt/aarch64/apps/gaussian16/c01/g16/l122.exe)
 Counterpoise: doing full-system calculation.
 Leave Link  122 at Wed Sep 27 16:37:42 2023, MaxMem=  3221225472 cpu:               0.6 elap:               0.1
 (Enter /home/center/opt/aarch64/apps/gaussian16/c01/g16/l301.exe)
 Standard basis: 6-311G(d,p) (5D, 7F)
 Ernie: Thresh=  0.10000D-02 Tol=  0.10000D-05 Strict=F.
 There are   528 symmetry adapted cartesian basis functions of A'  symmetry.
 There are   476 symmetry adapted cartesian basis functions of A"  symmetry.
 There are   504 symmetry adapted basis functions of A'  symmetry.
 There are   456 symmetry adapted basis functions of A"  symmetry.
   960 basis functions,  1632 primitive gaussians,  1004 cartesian basis functions
   146 alpha electrons      146 beta electrons
       nuclear repulsion energy      4665.3429579822 Hartrees.
 IExCor=  402 DFT=T Ex+Corr=B3LYP ExCW=0 ScaHFX=  0.200000
 ScaDFX=  0.800000  0.720000  1.000000  0.810000 ScalE2=  1.000000  1.000000
 IRadAn=      5 IRanWt=     -1 IRanGd=            0 ICorTp=0 IEmpDi=131
 NAtoms=   72 NActive=   72 NUniq=   40 SFac= 3.24D+00 NAtFMM=   60 NAOKFM=T Big=F
 Integral buffers will be    131072 words long.
 Raffenetti 2 integral format.
 Two-electron integral symmetry is turned on.
 R6Disp:  Grimme-D3 Dispersion energy=       -0.0844473759 Hartrees.
 Nuclear repulsion after empirical dispersion term =     4665.2585106063 Hartrees.
 Leave Link  301 at Wed Sep 27 16:37:44 2023, MaxMem=  3221225472 cpu:               4.5 elap:               0.2
 (Enter /home/center/opt/aarch64/apps/gaussian16/c01/g16/l302.exe)
 NPDir=0 NMtPBC=     1 NCelOv=     1 NCel=       1 NClECP=     1 NCelD=      1
         NCelK=      1 NCelE2=     1 NClLst=     1 CellRange=     0.0.
 One-electron integrals computed using PRISM.
 One-electron integral symmetry used in STVInt
 NBasis=   960 RedAO= T EigKep=  3.70D-05  NBF=   504   456
 NBsUse=   960 1.00D-06 EigRej= -1.00D+00 NBFU=   504   456
 Precomputing XC quadrature grid using
 IXCGrd= 4 IRadAn=           5 IRanWt=          -1 IRanGd=           0 AccXCQ= 0.00D+00.
 Generated NRdTot=       0 NPtTot=           0 NUsed=           0 NTot=          32
 NSgBfM=   989   989   989   989   989 MxSgAt=    72 MxSgA2=    72.
 Leave Link  302 at Wed Sep 27 16:37:49 2023, MaxMem=  3221225472 cpu:              66.3 elap:               2.0
 (Enter /home/center/opt/aarch64/apps/gaussian16/c01/g16/l303.exe)
 DipDrv:  MaxL=1.
 Leave Link  303 at Wed Sep 27 16:37:52 2023, MaxMem=  3221225472 cpu:              13.7 elap:               0.4
 (Enter /home/center/opt/aarch64/apps/gaussian16/c01/g16/l401.exe)
 ExpMin= 1.03D-01 ExpMax= 4.56D+03 ExpMxC= 6.82D+02 IAcc=3 IRadAn=         5 AccDes= 0.00D+00
 Harris functional with IExCor=  402 and IRadAn=       5 diagonalized for initial guess.
 HarFok:  IExCor=  402 AccDes= 0.00D+00 IRadAn=         5 IDoV= 1 UseB2=F ITyADJ=14
 ICtDFT=  3500011 ScaDFX=  1.000000  1.000000  1.000000  1.000000
 FoFCou: FMM=F IPFlag=           0 FMFlag=      100000 FMFlg1=        2000
         NFxFlg=           0 DoJE=T BraDBF=F KetDBF=T FulRan=T
         wScrn=  0.000000 ICntrl=       500 IOpCl=  0 I1Cent=   200000004 NGrid=           0
         NMat0=    1 NMatS0=      1 NMatT0=    0 NMatD0=    1 NMtDS0=    0 NMtDT0=    0
 Petite list used in FoFCou.
 Harris En= -1694.12856567543    
 JPrj=0 DoOrth=F DoCkMO=F.
 Initial guess orbital symmetries:
       Occupied  (A") (A') (A") (A') (A") (A') (A') (A") (A") (A')
                 (A") (A') (A") (A') (A") (A') (A") (A') (A') (A")
                 (A') (A") (A') (A") (A') (A') (A') (A') (A") (A')
                 (A") (A') (A") (A') (A") (A') (A") (A') (A") (A')
                 (A") (A') (A') (A") (A') (A') (A") (A") (A') (A')
                 (A") (A") (A') (A') (A') (A') (A") (A") (A') (A')
                 (A") (A") (A") (A") (A') (A') (A') (A') (A") (A")
                 (A") (A") (A') (A') (A") (A') (A") (A') (A') (A')
                 (A') (A') (A") (A") (A") (A") (A') (A") (A") (A')
                 (A') (A') (A") (A") (A') (A') (A') (A") (A') (A")
                 (A') (A') (A") (A") (A") (A") (A') (A') (A') (A")
                 (A") (A') (A') (A') (A") (A") (A') (A') (A") (A")
                 (A") (A") (A') (A') (A') (A') (A") (A") (A') (A')
                 (A") (A") (A') (A') (A") (A") (A') (A') (A') (A')
                 (A") (A") (A") (A") (A') (A')
       Virtual   (A') (A') (A") (A") (A") (A") (A') (A') (A') (A')
                 (A") (A") (A') (A') (A") (A") (A') (A") (A') (A')
                 (A') (A') (A") (A") (A') (A') (A") (A") (A') (A')
                 (A") (A') (A") (A") (A') (A") (A") (A') (A') (A')
                 (A") (A") (A') (A') (A") (A') (A") (A') (A') (A')
                 (A") (A') (A') (A") (A') (A') (A") (A') (A") (A")
                 (A') (A") (A") (A") (A') (A') (A") (A") (A") (A')
                 (A') (A") (A') (A') (A") (A') (A") (A") (A') (A")
                 (A') (A') (A') (A") (A") (A') (A') (A') (A") (A')
                 (A') (A") (A") (A") (A') (A") (A') (A") (A') (A')
                 (A") (A') (A") (A") (A') (A') (A") (A') (A') (A')
                 (A") (A") (A') (A") (A') (A') (A') (A") (A') (A")
                 (A') (A") (A") (A') (A') (A") (A") (A") (A') (A')
                 (A") (A") (A') (A") (A") (A') (A') (A") (A') (A')
                 (A") (A') (A") (A') (A") (A') (A') (A') (A') (A")
                 (A') (A") (A') (A") (A") (A') (A") (A') (A") (A')
                 (A") (A') (A") (A') (A") (A') (A") (A") (A') (A')
                 (A') (A") (A') (A") (A") (A') (A") (A') (A') (A")
                 (A') (A') (A") (A") (A') (A') (A') (A") (A') (A")
                 (A") (A') (A") (A') (A') (A") (A") (A') (A') (A')
                 (A") (A') (A") (A") (A') (A") (A') (A') (A") (A')
                 (A") (A') (A") (A") (A") (A') (A") (A') (A") (A')
                 (A') (A") (A') (A") (A") (A') (A") (A') (A") (A')
                 (A') (A') (A') (A") (A") (A') (A') (A") (A") (A")
                 (A') (A") (A') (A") (A') (A') (A') (A") (A') (A')
                 (A") (A') (A") (A") (A") (A') (A') (A") (A') (A")
                 (A') (A") (A') (A') (A") (A") (A") (A') (A") (A')
                 (A") (A') (A") (A') (A") (A') (A") (A") (A') (A')
                 (A') (A") (A') (A") (A") (A') (A') (A') (A") (A")
                 (A') (A") (A') (A") (A') (A") (A") (A") (A') (A")
                 (A') (A") (A') (A') (A") (A') (A') (A") (A') (A")
                 (A') (A") (A') (A") (A") (A") (A') (A') (A') (A')
                 (A") (A') (A") (A') (A') (A') (A") (A") (A") (A')
                 (A") (A") (A') (A") (A') (A') (A") (A') (A") (A')
                 (A') (A") (A") (A') (A') (A") (A') (A') (A") (A")
                 (A') (A') (A") (A') (A") (A') (A') (A") (A') (A')
                 (A') (A") (A') (A") (A") (A") (A") (A') (A") (A")
                 (A") (A') (A') (A") (A") (A') (A") (A') (A') (A')
                 (A") (A') (A') (A') (A') (A') (A") (A") (A') (A")
                 (A') (A") (A') (A") (A") (A") (A') (A") (A') (A')
                 (A") (A') (A') (A") (A") (A') (A') (A") (A") (A')
                 (A") (A') (A') (A') (A") (A') (A') (A") (A") (A')
                 (A') (A') (A') (A") (A") (A") (A') (A') (A') (A")
                 (A") (A") (A") (A") (A') (A') (A") (A") (A') (A")
                 (A') (A') (A") (A") (A') (A") (A') (A") (A') (A")
                 (A') (A') (A") (A") (A') (A') (A') (A") (A') (A")
                 (A') (A") (A') (A") (A") (A") (A') (A") (A') (A')
                 (A") (A') (A") (A") (A') (A") (A') (A') (A") (A')
                 (A') (A") (A') (A") (A') (A") (A") (A') (A") (A')
                 (A") (A") (A') (A") (A") (A") (A') (A") (A') (A')
                 (A") (A") (A') (A') (A") (A') (A') (A') (A") (A')
                 (A") (A') (A') (A") (A") (A') (A") (A') (A") (A')
                 (A") (A') (A") (A") (A') (A") (A') (A') (A") (A')
                 (A') (A") (A") (A') (A") (A") (A') (A") (A') (A')
                 (A") (A") (A') (A') (A') (A") (A") (A') (A") (A")
                 (A') (A") (A') (A") (A') (A') (A") (A') (A') (A")
                 (A") (A") (A') (A') (A') (A') (A") (A") (A') (A")
                 (A') (A") (A") (A') (A") (A') (A") (A') (A") (A')
                 (A') (A') (A") (A") (A') (A") (A') (A') (A') (A')
                 (A") (A") (A') (A') (A") (A') (A") (A') (A") (A')
                 (A') (A") (A') (A") (A") (A") (A') (A') (A") (A')
                 (A') (A") (A") (A') (A") (A') (A") (A") (A') (A")
                 (A') (A') (A") (A') (A") (A') (A") (A') (A') (A')
                 (A') (A") (A') (A") (A") (A') (A") (A") (A") (A')
                 (A") (A') (A") (A') (A") (A') (A') (A') (A") (A')
                 (A') (A") (A') (A') (A") (A') (A") (A') (A") (A")
                 (A') (A') (A") (A") (A') (A') (A") (A') (A") (A')
                 (A") (A') (A") (A') (A") (A') (A") (A") (A') (A')
                 (A") (A') (A") (A') (A') (A") (A") (A') (A") (A")
                 (A') (A') (A") (A') (A") (A') (A') (A") (A") (A')
                 (A") (A') (A') (A") (A') (A") (A') (A") (A') (A")
                 (A') (A") (A") (A") (A') (A') (A') (A") (A') (A")
                 (A') (A') (A") (A") (A') (A") (A') (A') (A") (A')
                 (A") (A') (A") (A') (A") (A') (A") (A') (A') (A')
                 (A") (A") (A') (A") (A') (A") (A') (A') (A') (A')
                 (A") (A') (A") (A") (A') (A") (A') (A') (A") (A")
                 (A") (A') (A") (A') (A") (A") (A') (A") (A') (A")
                 (A') (A') (A") (A") (A') (A') (A') (A') (A") (A")
                 (A") (A") (A') (A') (A") (A') (A") (A') (A') (A')
                 (A") (A") (A") (A") (A') (A') (A') (A') (A") (A")
                 (A') (A') (A") (A") (A') (A") (A') (A") (A') (A')
                 (A') (A") (A') (A")
 The electronic state of the initial guess is 1-A'.
 Leave Link  401 at Wed Sep 27 16:37:57 2023, MaxMem=  3221225472 cpu:             105.4 elap:               2.7
 (Enter /home/center/opt/aarch64/apps/gaussian16/c01/g16/l502.exe)
 Integral symmetry usage will be decided dynamically.
 Closed shell SCF:
 Using DIIS extrapolation, IDIIS=  1040.
 NGot=  3221225472 LenX=  3219153746 LenY=  3218144726
 Requested convergence on RMS density matrix=1.00D-08 within 128 cycles.
 Requested convergence on MAX density matrix=1.00D-06.
 Requested convergence on             energy=1.00D-06.
 No special actions if energy rises.
 Fock matrices will be formed incrementally for  20 cycles.
 Integral accuracy reduced to 1.0D-05 until final iterations.

 Cycle   1  Pass 0  IDiag  1:
 FoFJK:  IHMeth= 1 ICntrl=       0 DoSepK=F KAlg= 0 I1Cent=           0 FoldK=F
 IRaf= 560000000 NMat=       1 IRICut=       1 DoRegI=T DoRafI=F ISym2E= 1 IDoP0=0 IntGTp=1.
 FoFCou: FMM=F IPFlag=           0 FMFlag=      100000 FMFlg1=        2000
         NFxFlg=           0 DoJE=F BraDBF=F KetDBF=F FulRan=T
         wScrn=  0.000000 ICntrl=         0 IOpCl=  0 I1Cent=           0 NGrid=           0
         NMat0=    1 NMatS0=      1 NMatT0=    0 NMatD0=    1 NMtDS0=    0 NMtDT0=    0
 Petite list used in FoFCou.
 E= -1693.16637320352    
 DIIS: error= 4.14D-02 at cycle   1 NSaved=   1.
 NSaved= 1 IEnMin= 1 EnMin= -1693.16637320352     IErMin= 1 ErrMin= 4.14D-02
 ErrMax= 4.14D-02  0.00D+00 EMaxC= 1.00D-01 BMatC= 8.98D-01 BMatP= 8.98D-01
 IDIUse=3 WtCom= 5.86D-01 WtEn= 4.14D-01
 Coeff-Com:  0.100D+01
 Coeff-En:   0.100D+01
 Coeff:      0.100D+01
 Gap=     0.063 Goal=   None    Shift=    0.000
 GapD=    0.063 DampG=0.500 DampE=0.500 DampFc=0.2500 IDamp=-1.
 Damping current iteration by 2.50D-01
 RMSDP=1.75D-03 MaxDP=8.40D-02              OVMax= 1.57D-01

 Cycle   2  Pass 0  IDiag  1:
 RMSU=  4.24D-04    CP:  9.82D-01
 E= -1693.47410194865     Delta-E=       -0.307728745124 Rises=F Damp=T
 DIIS: error= 2.42D-02 at cycle   2 NSaved=   2.
 NSaved= 2 IEnMin= 2 EnMin= -1693.47410194865     IErMin= 2 ErrMin= 2.42D-02
 ErrMax= 2.42D-02  0.00D+00 EMaxC= 1.00D-01 BMatC= 2.99D-01 BMatP= 8.98D-01
 IDIUse=3 WtCom= 7.58D-01 WtEn= 2.42D-01
 Coeff-Com: -0.121D+01 0.221D+01
 Coeff-En:   0.000D+00 0.100D+01
 Coeff:     -0.917D+00 0.192D+01
 Gap=     0.061 Goal=   None    Shift=    0.000
 RMSDP=7.27D-04 MaxDP=3.33D-02 DE=-3.08D-01 OVMax= 9.96D-02

 Cycle   3  Pass 0  IDiag  1:
 RMSU=  5.20D-04    CP:  9.56D-01  2.13D+00
 E= -1694.03748339403     Delta-E=       -0.563381445380 Rises=F Damp=F
 DIIS: error= 4.60D-03 at cycle   3 NSaved=   3.
 NSaved= 3 IEnMin= 3 EnMin= -1694.03748339403     IErMin= 3 ErrMin= 4.60D-03
 ErrMax= 4.60D-03  0.00D+00 EMaxC= 1.00D-01 BMatC= 1.20D-02 BMatP= 2.99D-01
 IDIUse=3 WtCom= 9.54D-01 WtEn= 4.60D-02
 Coeff-Com: -0.289D+00 0.570D+00 0.718D+00
 Coeff-En:   0.000D+00 0.000D+00 0.100D+01
 Coeff:     -0.276D+00 0.544D+00 0.731D+00
 Gap=     0.067 Goal=   None    Shift=    0.000
 RMSDP=2.46D-04 MaxDP=1.40D-02 DE=-5.63D-01 OVMax= 1.05D-01

 Cycle   4  Pass 0  IDiag  1:
 RMSU=  2.04D-04    CP:  9.57D-01  2.09D+00  7.39D-01
 E= -1694.03365157711     Delta-E=        0.003831816917 Rises=F Damp=F
 DIIS: error= 7.01D-03 at cycle   4 NSaved=   4.
 NSaved= 4 IEnMin= 3 EnMin= -1694.03748339403     IErMin= 3 ErrMin= 4.60D-03
 ErrMax= 7.01D-03  0.00D+00 EMaxC= 1.00D-01 BMatC= 1.37D-02 BMatP= 1.20D-02
 IDIUse=3 WtCom= 1.07D-01 WtEn= 8.93D-01
 Coeff-Com: -0.659D-01 0.147D+00 0.511D+00 0.408D+00
 Coeff-En:   0.000D+00 0.000D+00 0.555D+00 0.445D+00
 Coeff:     -0.704D-02 0.157D-01 0.550D+00 0.441D+00
 Gap=     0.063 Goal=   None    Shift=    0.000
 RMSDP=1.43D-04 MaxDP=9.90D-03 DE= 3.83D-03 OVMax= 8.50D-02

 Cycle   5  Pass 0  IDiag  1:
 RMSU=  8.15D-05    CP:  9.57D-01  2.10D+00  7.89D-01  4.38D-01
 E= -1694.04893890062     Delta-E=       -0.015287323512 Rises=F Damp=F
 DIIS: error= 2.32D-03 at cycle   5 NSaved=   5.
 NSaved= 5 IEnMin= 5 EnMin= -1694.04893890062     IErMin= 5 ErrMin= 2.32D-03
 ErrMax= 2.32D-03  0.00D+00 EMaxC= 1.00D-01 BMatC= 9.86D-04 BMatP= 1.20D-02
 IDIUse=3 WtCom= 9.77D-01 WtEn= 2.32D-02
 Coeff-Com: -0.154D-01 0.338D-01 0.248D+00 0.247D+00 0.487D+00
 Coeff-En:   0.000D+00 0.000D+00 0.000D+00 0.179D-01 0.982D+00
 Coeff:     -0.151D-01 0.330D-01 0.242D+00 0.242D+00 0.498D+00
 Gap=     0.064 Goal=   None    Shift=    0.000
 RMSDP=4.91D-05 MaxDP=2.94D-03 DE=-1.53D-02 OVMax= 2.95D-02

 Cycle   6  Pass 0  IDiag  1:
 RMSU=  2.43D-05    CP:  9.57D-01  2.10D+00  8.09D-01  5.17D-01  5.34D-01
 E= -1694.04981533544     Delta-E=       -0.000876434811 Rises=F Damp=F
 DIIS: error= 1.25D-03 at cycle   6 NSaved=   6.
 NSaved= 6 IEnMin= 6 EnMin= -1694.04981533544     IErMin= 6 ErrMin= 1.25D-03
 ErrMax= 1.25D-03  0.00D+00 EMaxC= 1.00D-01 BMatC= 2.28D-04 BMatP= 9.86D-04
 IDIUse=3 WtCom= 9.87D-01 WtEn= 1.25D-02
 Coeff-Com: -0.976D-03 0.215D-02 0.103D+00 0.115D+00 0.352D+00 0.429D+00
 Coeff-En:   0.000D+00 0.000D+00 0.000D+00 0.000D+00 0.204D+00 0.796D+00
 Coeff:     -0.964D-03 0.212D-02 0.101D+00 0.113D+00 0.351D+00 0.434D+00
 Gap=     0.063 Goal=   None    Shift=    0.000
 RMSDP=1.93D-05 MaxDP=1.55D-03 DE=-8.76D-04 OVMax= 1.27D-02

 Cycle   7  Pass 0  IDiag  1:
 RMSU=  1.12D-05    CP:  9.56D-01  2.10D+00  8.11D-01  4.97D-01  5.98D-01
                    CP:  4.16D-01
 E= -1694.05005909577     Delta-E=       -0.000243760335 Rises=F Damp=F
 DIIS: error= 3.59D-04 at cycle   7 NSaved=   7.
 NSaved= 7 IEnMin= 7 EnMin= -1694.05005909577     IErMin= 7 ErrMin= 3.59D-04
 ErrMax= 3.59D-04  0.00D+00 EMaxC= 1.00D-01 BMatC= 2.37D-05 BMatP= 2.28D-04
 IDIUse=3 WtCom= 9.96D-01 WtEn= 3.59D-03
 Coeff-Com:  0.934D-03-0.160D-02 0.568D-01 0.641D-01 0.215D+00 0.308D+00
 Coeff-Com:  0.357D+00
 Coeff-En:   0.000D+00 0.000D+00 0.000D+00 0.000D+00 0.000D+00 0.631D-01
 Coeff-En:   0.937D+00
 Coeff:      0.931D-03-0.160D-02 0.566D-01 0.639D-01 0.214D+00 0.307D+00
 Coeff:      0.360D+00
 Gap=     0.063 Goal=   None    Shift=    0.000
 RMSDP=6.66D-06 MaxDP=3.63D-04 DE=-2.44D-04 OVMax= 3.18D-03

 Initial convergence to 1.0D-05 achieved.  Increase integral accuracy.
 Cycle   8  Pass 1  IDiag  1:
 E= -1694.04970991093     Delta-E=        0.000349184845 Rises=F Damp=F
 DIIS: error= 8.88D-04 at cycle   1 NSaved=   1.
 NSaved= 1 IEnMin= 1 EnMin= -1694.04970991093     IErMin= 1 ErrMin= 8.88D-04
 ErrMax= 8.88D-04  0.00D+00 EMaxC= 1.00D-01 BMatC= 4.67D-05 BMatP= 4.67D-05
 IDIUse=3 WtCom= 9.91D-01 WtEn= 8.88D-03
 Coeff-Com:  0.100D+01
 Coeff-En:   0.100D+01
 Coeff:      0.100D+01
 Gap=     0.063 Goal=   None    Shift=    0.000
 RMSDP=6.66D-06 MaxDP=3.63D-04 DE= 3.49D-04 OVMax= 3.02D-03

 Cycle   9  Pass 1  IDiag  1:
 RMSU=  3.55D-04    CP:  9.98D-01
 E= -1694.04974387557     Delta-E=       -0.000033964644 Rises=F Damp=F
 DIIS: error= 2.46D-04 at cycle   2 NSaved=   2.
 NSaved= 2 IEnMin= 2 EnMin= -1694.04974387557     IErMin= 2 ErrMin= 2.46D-04
 ErrMax= 2.46D-04  0.00D+00 EMaxC= 1.00D-01 BMatC= 8.72D-06 BMatP= 4.67D-05
 IDIUse=3 WtCom= 9.98D-01 WtEn= 2.46D-03
 Coeff-Com:  0.188D+00 0.812D+00
 Coeff-En:   0.000D+00 0.100D+01
 Coeff:      0.188D+00 0.812D+00
 Gap=     0.063 Goal=   None    Shift=    0.000
 RMSDP=1.12D-05 MaxDP=6.90D-04 DE=-3.40D-05 OVMax= 6.02D-03

 Cycle  10  Pass 1  IDiag  1:
 RMSU=  1.08D-05    CP:  9.98D-01  1.01D+00
 E= -1694.04970017473     Delta-E=        0.000043700843 Rises=F Damp=F
 DIIS: error= 5.70D-04 at cycle   3 NSaved=   3.
 NSaved= 3 IEnMin= 2 EnMin= -1694.04974387557     IErMin= 2 ErrMin= 2.46D-04
 ErrMax= 5.70D-04  0.00D+00 EMaxC= 1.00D-01 BMatC= 4.30D-05 BMatP= 8.72D-06
 IDIUse=3 WtCom= 2.95D-01 WtEn= 7.05D-01
 Coeff-Com: -0.284D-03 0.691D+00 0.309D+00
 Coeff-En:   0.000D+00 0.757D+00 0.243D+00
 Coeff:     -0.839D-04 0.737D+00 0.263D+00
 Gap=     0.063 Goal=   None    Shift=    0.000
 RMSDP=6.29D-06 MaxDP=3.63D-04 DE= 4.37D-05 OVMax= 3.47D-03

 Cycle  11  Pass 1  IDiag  1:
 RMSU=  1.18D-06    CP:  9.98D-01  1.01D+00  4.33D-01
 E= -1694.04975269056     Delta-E=       -0.000052515835 Rises=F Damp=F
 DIIS: error= 9.68D-05 at cycle   4 NSaved=   4.
 NSaved= 4 IEnMin= 4 EnMin= -1694.04975269056     IErMin= 4 ErrMin= 9.68D-05
 ErrMax= 9.68D-05  0.00D+00 EMaxC= 1.00D-01 BMatC= 1.69D-06 BMatP= 8.72D-06
 IDIUse=1 WtCom= 1.00D+00 WtEn= 0.00D+00
 Coeff-Com: -0.370D-02 0.447D+00 0.119D+00 0.437D+00
 Coeff:     -0.370D-02 0.447D+00 0.119D+00 0.437D+00
 Gap=     0.063 Goal=   None    Shift=    0.000
 RMSDP=1.41D-06 MaxDP=1.04D-04 DE=-5.25D-05 OVMax= 7.46D-04

 Cycle  12  Pass 1  IDiag  1:
 RMSU=  4.10D-07    CP:  9.98D-01  1.01D+00  3.10D-01  7.83D-01
 E= -1694.04975469355     Delta-E=       -0.000002002989 Rises=F Damp=F
 DIIS: error= 5.27D-06 at cycle   5 NSaved=   5.
 NSaved= 5 IEnMin= 5 EnMin= -1694.04975469355     IErMin= 5 ErrMin= 5.27D-06
 ErrMax= 5.27D-06  0.00D+00 EMaxC= 1.00D-01 BMatC= 5.15D-09 BMatP= 1.69D-06
 IDIUse=1 WtCom= 1.00D+00 WtEn= 0.00D+00
 Coeff-Com: -0.219D-02 0.253D+00 0.653D-01 0.261D+00 0.422D+00
 Coeff:     -0.219D-02 0.253D+00 0.653D-01 0.261D+00 0.422D+00
 Gap=     0.063 Goal=   None    Shift=    0.000
 RMSDP=1.11D-07 MaxDP=4.67D-06 DE=-2.00D-06 OVMax= 4.23D-05

 Cycle  13  Pass 1  IDiag  1:
 RMSU=  1.01D-07    CP:  9.98D-01  1.01D+00  3.10D-01  7.89D-01  8.94D-01
 E= -1694.04975469925     Delta-E=       -0.000000005699 Rises=F Damp=F
 DIIS: error= 1.83D-06 at cycle   6 NSaved=   6.
 NSaved= 6 IEnMin= 6 EnMin= -1694.04975469925     IErMin= 6 ErrMin= 1.83D-06
 ErrMax= 1.83D-06  0.00D+00 EMaxC= 1.00D-01 BMatC= 6.83D-10 BMatP= 5.15D-09
 IDIUse=1 WtCom= 1.00D+00 WtEn= 0.00D+00
 Coeff-Com: -0.919D-03 0.103D+00 0.260D-01 0.110D+00 0.274D+00 0.487D+00
 Coeff:     -0.919D-03 0.103D+00 0.260D-01 0.110D+00 0.274D+00 0.487D+00
 Gap=     0.063 Goal=   None    Shift=    0.000
 RMSDP=3.39D-08 MaxDP=2.04D-06 DE=-5.70D-09 OVMax= 1.75D-05

 Cycle  14  Pass 1  IDiag  1:
 RMSU=  2.91D-08    CP:  9.98D-01  1.01D+00  3.10D-01  7.88D-01  9.17D-01
                    CP:  8.74D-01
 E= -1694.04975469997     Delta-E=       -0.000000000720 Rises=F Damp=F
 DIIS: error= 4.46D-07 at cycle   7 NSaved=   7.
 NSaved= 7 IEnMin= 7 EnMin= -1694.04975469997     IErMin= 7 ErrMin= 4.46D-07
 ErrMax= 4.46D-07  0.00D+00 EMaxC= 1.00D-01 BMatC= 5.03D-11 BMatP= 6.83D-10
 IDIUse=1 WtCom= 1.00D+00 WtEn= 0.00D+00
 Coeff-Com: -0.307D-03 0.337D-01 0.824D-02 0.373D-01 0.110D+00 0.275D+00
 Coeff-Com:  0.536D+00
 Coeff:     -0.307D-03 0.337D-01 0.824D-02 0.373D-01 0.110D+00 0.275D+00
 Coeff:      0.536D+00
 Gap=     0.063 Goal=   None    Shift=    0.000
 RMSDP=1.28D-08 MaxDP=5.66D-07 DE=-7.20D-10 OVMax= 5.10D-06

 Cycle  15  Pass 1  IDiag  1:
 RMSU=  8.12D-09    CP:  9.98D-01  1.01D+00  3.10D-01  7.91D-01  9.17D-01
                    CP:  8.74D-01  6.75D-01
 E= -1694.04975470001     Delta-E=       -0.000000000039 Rises=F Damp=F
 DIIS: error= 2.56D-07 at cycle   8 NSaved=   8.
 NSaved= 8 IEnMin= 8 EnMin= -1694.04975470001     IErMin= 8 ErrMin= 2.56D-07
 ErrMax= 2.56D-07  0.00D+00 EMaxC= 1.00D-01 BMatC= 1.69D-11 BMatP= 5.03D-11
 IDIUse=1 WtCom= 1.00D+00 WtEn= 0.00D+00
 Coeff-Com: -0.124D-04 0.909D-03-0.736D-04 0.226D-02 0.191D-01 0.978D-01
 Coeff-Com:  0.383D+00 0.497D+00
 Coeff:     -0.124D-04 0.909D-03-0.736D-04 0.226D-02 0.191D-01 0.978D-01
 Coeff:      0.383D+00 0.497D+00
 Gap=     0.063 Goal=   None    Shift=    0.000
 RMSDP=6.04D-09 MaxDP=2.95D-07 DE=-3.91D-11 OVMax= 3.27D-06

 SCF Done:  E(RB3LYP) =  -1694.04975470     A.U. after   15 cycles
            NFock= 15  Conv=0.60D-08     -V/T= 2.0043
 KE= 1.686792608892D+03 PE=-1.326111012974D+04 EE= 5.215009255538D+03
 Leave Link  502 at Wed Sep 27 16:39:48 2023, MaxMem=  3221225472 cpu:            3874.8 elap:             108.7
 (Enter /home/center/opt/aarch64/apps/gaussian16/c01/g16/l601.exe)
 Copying SCF densities to generalized density rwf, IOpCl= 0 IROHF=0.

 **********************************************************************

            Population analysis using the SCF Density.

 **********************************************************************

 Orbital symmetries:
       Occupied  (A") (A') (A') (A") (A") (A') (A") (A') (A') (A")
                 (A') (A') (A") (A') (A") (A') (A") (A') (A") (A')
                 (A") (A') (A") (A') (A") (A') (A') (A") (A') (A")
                 (A") (A') (A") (A') (A') (A") (A') (A") (A') (A')
                 (A") (A') (A") (A') (A') (A") (A') (A") (A') (A')
                 (A") (A") (A') (A') (A") (A') (A') (A") (A') (A')
                 (A") (A") (A") (A") (A') (A') (A') (A') (A") (A")
                 (A') (A") (A") (A") (A') (A') (A") (A') (A') (A')
                 (A') (A") (A") (A') (A") (A") (A') (A") (A') (A')
                 (A") (A') (A") (A') (A") (A') (A") (A') (A") (A')
                 (A") (A') (A') (A') (A') (A') (A") (A") (A") (A')
                 (A') (A') (A") (A") (A") (A") (A") (A') (A") (A')
                 (A') (A') (A') (A") (A") (A') (A') (A") (A') (A")
                 (A") (A") (A') (A') (A") (A') (A") (A') (A') (A')
                 (A") (A") (A") (A") (A') (A')
       Virtual   (A') (A') (A") (A") (A") (A") (A') (A') (A') (A")
                 (A') (A') (A") (A') (A") (A') (A') (A') (A") (A")
                 (A') (A') (A") (A") (A') (A") (A') (A") (A") (A')
                 (A") (A') (A") (A') (A') (A") (A") (A') (A') (A")
                 (A') (A') (A') (A") (A') (A") (A") (A') (A") (A")
                 (A') (A') (A') (A') (A") (A') (A') (A') (A") (A')
                 (A") (A") (A") (A") (A') (A') (A") (A') (A") (A")
                 (A') (A') (A") (A') (A") (A') (A") (A") (A') (A")
                 (A') (A') (A') (A') (A") (A') (A') (A") (A') (A")
                 (A") (A') (A') (A") (A') (A") (A') (A") (A') (A")
                 (A') (A') (A") (A") (A") (A') (A') (A") (A') (A")
                 (A") (A") (A') (A') (A') (A") (A") (A') (A") (A')
                 (A') (A") (A') (A') (A') (A') (A") (A') (A") (A")
                 (A') (A') (A') (A") (A') (A") (A') (A') (A") (A')
                 (A") (A") (A') (A') (A") (A") (A") (A') (A") (A")
                 (A') (A") (A') (A') (A") (A") (A') (A') (A') (A')
                 (A") (A") (A') (A") (A') (A") (A') (A") (A') (A")
                 (A') (A') (A') (A") (A') (A") (A") (A') (A") (A")
                 (A') (A') (A") (A') (A") (A") (A') (A") (A') (A')
                 (A') (A") (A") (A') (A') (A") (A") (A') (A") (A')
                 (A") (A') (A") (A') (A") (A') (A') (A') (A") (A')
                 (A') (A") (A") (A") (A') (A') (A") (A") (A') (A")
                 (A') (A") (A") (A') (A') (A") (A') (A") (A") (A')
                 (A') (A') (A") (A') (A") (A') (A") (A') (A") (A')
                 (A") (A") (A') (A") (A') (A') (A') (A') (A") (A')
                 (A") (A") (A") (A') (A') (A") (A") (A') (A") (A')
                 (A') (A") (A") (A') (A') (A") (A') (A') (A") (A')
                 (A") (A") (A') (A") (A") (A') (A') (A") (A") (A')
                 (A') (A') (A") (A") (A') (A') (A") (A') (A") (A")
                 (A') (A") (A") (A') (A") (A') (A") (A") (A') (A')
                 (A') (A") (A') (A") (A") (A') (A") (A') (A') (A")
                 (A') (A") (A') (A') (A") (A') (A") (A') (A") (A")
                 (A') (A") (A') (A') (A') (A") (A') (A") (A") (A')
                 (A") (A") (A') (A") (A') (A") (A") (A') (A') (A')
                 (A') (A") (A') (A') (A") (A') (A") (A') (A") (A')
                 (A") (A") (A') (A') (A") (A') (A') (A') (A") (A')
                 (A") (A') (A") (A') (A") (A") (A') (A") (A") (A')
                 (A") (A") (A") (A') (A') (A") (A") (A') (A') (A')
                 (A") (A') (A") (A') (A') (A") (A') (A') (A') (A')
                 (A") (A") (A') (A") (A") (A') (A") (A") (A') (A')
                 (A") (A') (A") (A') (A') (A") (A') (A") (A") (A')
                 (A") (A') (A') (A") (A') (A") (A') (A') (A") (A')
                 (A') (A') (A") (A') (A") (A') (A") (A') (A") (A")
                 (A') (A") (A") (A') (A") (A') (A') (A") (A') (A")
                 (A") (A') (A") (A") (A') (A") (A') (A") (A') (A')
                 (A") (A') (A") (A') (A") (A') (A") (A') (A") (A')
                 (A") (A") (A') (A') (A") (A") (A') (A') (A') (A")
                 (A') (A") (A") (A") (A') (A') (A") (A') (A") (A')
                 (A") (A") (A') (A') (A') (A") (A") (A') (A") (A')
                 (A") (A") (A") (A') (A") (A") (A') (A") (A') (A")
                 (A') (A") (A') (A') (A') (A") (A') (A') (A") (A')
                 (A") (A') (A") (A') (A") (A') (A') (A") (A") (A')
                 (A") (A') (A") (A") (A') (A') (A') (A") (A") (A")
                 (A") (A') (A') (A") (A') (A") (A') (A") (A') (A')
                 (A") (A') (A') (A") (A") (A') (A") (A") (A') (A")
                 (A') (A") (A") (A') (A') (A") (A') (A') (A") (A")
                 (A') (A') (A') (A") (A") (A') (A") (A') (A") (A')
                 (A") (A') (A') (A') (A') (A") (A") (A') (A") (A')
                 (A") (A") (A') (A') (A") (A") (A') (A") (A') (A")
                 (A") (A') (A") (A') (A') (A') (A') (A") (A') (A")
                 (A') (A") (A') (A") (A') (A') (A") (A') (A') (A")
                 (A') (A") (A') (A") (A') (A') (A") (A') (A") (A')
                 (A") (A") (A") (A') (A") (A") (A') (A') (A") (A')
                 (A') (A') (A") (A') (A") (A') (A") (A") (A') (A')
                 (A") (A") (A") (A') (A') (A") (A') (A') (A') (A')
                 (A") (A") (A') (A') (A") (A') (A") (A") (A') (A")
                 (A') (A') (A") (A") (A') (A") (A') (A') (A") (A')
                 (A') (A") (A") (A") (A') (A') (A") (A") (A') (A')
                 (A') (A') (A") (A") (A') (A") (A') (A") (A") (A")
                 (A') (A') (A") (A') (A') (A') (A") (A") (A') (A")
                 (A') (A') (A") (A") (A') (A") (A') (A") (A") (A')
                 (A') (A") (A") (A") (A') (A') (A') (A") (A') (A")
                 (A') (A') (A") (A') (A") (A') (A") (A') (A") (A')
                 (A') (A") (A") (A') (A") (A') (A') (A") (A') (A")
                 (A') (A") (A') (A") (A') (A') (A") (A') (A') (A')
                 (A") (A') (A") (A") (A') (A") (A') (A') (A") (A")
                 (A") (A') (A") (A") (A') (A') (A") (A") (A') (A")
                 (A') (A') (A") (A") (A') (A') (A') (A') (A") (A")
                 (A") (A") (A') (A') (A') (A") (A') (A") (A') (A')
                 (A") (A") (A") (A") (A') (A') (A") (A') (A') (A")
                 (A') (A") (A') (A') (A") (A") (A') (A') (A") (A')
                 (A') (A") (A') (A")
 The electronic state is 1-A'.
 Alpha  occ. eigenvalues --  -10.19671 -10.19671 -10.19612 -10.19611 -10.19586
 Alpha  occ. eigenvalues --  -10.19586 -10.19488 -10.19488 -10.18744 -10.18670
 Alpha  occ. eigenvalues --  -10.18670 -10.18635 -10.18607 -10.18607 -10.18595
 Alpha  occ. eigenvalues --  -10.18595 -10.18510 -10.18510 -10.18486 -10.18486
 Alpha  occ. eigenvalues --  -10.18375 -10.18375 -10.17954 -10.17954 -10.17914
 Alpha  occ. eigenvalues --  -10.17914 -10.17852 -10.17852 -10.17783 -10.17783
 Alpha  occ. eigenvalues --  -10.17067 -10.17067 -10.16990 -10.16990 -10.16968
 Alpha  occ. eigenvalues --  -10.16965 -10.16964 -10.16902 -10.16902 -10.16722
 Alpha  occ. eigenvalues --  -10.16691 -10.16691 -10.16642 -10.16642  -0.90095
 Alpha  occ. eigenvalues --   -0.88599  -0.88355  -0.86911  -0.86273  -0.84610
 Alpha  occ. eigenvalues --   -0.83132  -0.81484  -0.80620  -0.79233  -0.79092
 Alpha  occ. eigenvalues --   -0.78810  -0.77595  -0.77333  -0.76756  -0.75024
 Alpha  occ. eigenvalues --   -0.74954  -0.73661  -0.73320  -0.71942  -0.69965
 Alpha  occ. eigenvalues --   -0.68261  -0.68028  -0.66402  -0.63453  -0.63083
 Alpha  occ. eigenvalues --   -0.61926  -0.61780  -0.61449  -0.60761  -0.60085
 Alpha  occ. eigenvalues --   -0.60065  -0.58961  -0.58410  -0.58329  -0.56760
 Alpha  occ. eigenvalues --   -0.53414  -0.53326  -0.53013  -0.51792  -0.51612
 Alpha  occ. eigenvalues --   -0.51371  -0.50417  -0.49196  -0.48700  -0.47890
 Alpha  occ. eigenvalues --   -0.47619  -0.46949  -0.46398  -0.46265  -0.46175
 Alpha  occ. eigenvalues --   -0.45437  -0.44812  -0.44617  -0.44539  -0.43894
 Alpha  occ. eigenvalues --   -0.43326  -0.43031  -0.42605  -0.42395  -0.42263
 Alpha  occ. eigenvalues --   -0.41829  -0.41703  -0.41401  -0.41084  -0.40831
 Alpha  occ. eigenvalues --   -0.40612  -0.40419  -0.40213  -0.39714  -0.39466
 Alpha  occ. eigenvalues --   -0.38886  -0.38644  -0.37464  -0.37345  -0.37008
 Alpha  occ. eigenvalues --   -0.36253  -0.35814  -0.35457  -0.34800  -0.34510
 Alpha  occ. eigenvalues --   -0.34477  -0.33794  -0.33465  -0.33251  -0.33139
 Alpha  occ. eigenvalues --   -0.33090  -0.32025  -0.30870  -0.30591  -0.29870
 Alpha  occ. eigenvalues --   -0.29069  -0.28710  -0.27516  -0.27169  -0.25684
 Alpha  occ. eigenvalues --   -0.25086  -0.23458  -0.23258  -0.21646  -0.18626
 Alpha  occ. eigenvalues --   -0.16896
 Alpha virt. eigenvalues --   -0.10568  -0.08800  -0.05277  -0.03563  -0.03550
 Alpha virt. eigenvalues --   -0.01848  -0.01022   0.00730   0.01241   0.01330
 Alpha virt. eigenvalues --    0.01949   0.02945   0.03122   0.03546   0.03971
 Alpha virt. eigenvalues --    0.03999   0.04770   0.05602   0.05633   0.06089
 Alpha virt. eigenvalues --    0.06239   0.06794   0.07222   0.07492   0.07742
 Alpha virt. eigenvalues --    0.08251   0.08756   0.09163   0.09410   0.09842
 Alpha virt. eigenvalues --    0.10741   0.10869   0.11564   0.12352   0.12985
 Alpha virt. eigenvalues --    0.13158   0.13360   0.13642   0.14029   0.14385
 Alpha virt. eigenvalues --    0.15032   0.16322   0.16582   0.17425   0.17606
 Alpha virt. eigenvalues --    0.17983   0.18219   0.19010   0.19180   0.20164
 Alpha virt. eigenvalues --    0.20771   0.20910   0.22188   0.22491   0.23586
 Alpha virt. eigenvalues --    0.23778   0.24070   0.24707   0.24910   0.25464
 Alpha virt. eigenvalues --    0.26254   0.26499   0.26711   0.27038   0.27415
 Alpha virt. eigenvalues --    0.27726   0.28135   0.28371   0.28673   0.28943
 Alpha virt. eigenvalues --    0.28994   0.29416   0.29845   0.29944   0.30209
 Alpha virt. eigenvalues --    0.30289   0.30595   0.31093   0.31301   0.31966
 Alpha virt. eigenvalues --    0.32870   0.34079   0.34131   0.34608   0.34921
 Alpha virt. eigenvalues --    0.35182   0.35703   0.35745   0.36242   0.36286
 Alpha virt. eigenvalues --    0.36573   0.36630   0.37386   0.37706   0.37781
 Alpha virt. eigenvalues --    0.37860   0.38156   0.38188   0.38677   0.38826
 Alpha virt. eigenvalues --    0.39008   0.39097   0.39628   0.39697   0.40266
 Alpha virt. eigenvalues --    0.40420   0.40562   0.40682   0.40865   0.41131
 Alpha virt. eigenvalues --    0.41593   0.41855   0.41961   0.42199   0.42391
 Alpha virt. eigenvalues --    0.42403   0.42936   0.43171   0.43190   0.43245
 Alpha virt. eigenvalues --    0.43303   0.44208   0.44529   0.44834   0.44929
 Alpha virt. eigenvalues --    0.45026   0.45360   0.45535   0.45549   0.45846
 Alpha virt. eigenvalues --    0.45925   0.46388   0.46735   0.46741   0.46776
 Alpha virt. eigenvalues --    0.46810   0.46949   0.47323   0.47413   0.48143
 Alpha virt. eigenvalues --    0.48450   0.48803   0.48829   0.49100   0.49393
 Alpha virt. eigenvalues --    0.49748   0.50182   0.50234   0.50514   0.50995
 Alpha virt. eigenvalues --    0.51320   0.51570   0.52044   0.52388   0.52537
 Alpha virt. eigenvalues --    0.53079   0.53314   0.53955   0.54097   0.55055
 Alpha virt. eigenvalues --    0.55660   0.56177   0.57112   0.57123   0.57245
 Alpha virt. eigenvalues --    0.57697   0.57730   0.58155   0.58799   0.58940
 Alpha virt. eigenvalues --    0.59386   0.60023   0.60209   0.60224   0.61084
 Alpha virt. eigenvalues --    0.61153   0.61549   0.61617   0.61958   0.62149
 Alpha virt. eigenvalues --    0.62156   0.62638   0.62640   0.62856   0.62924
 Alpha virt. eigenvalues --    0.63266   0.63387   0.63803   0.64011   0.64206
 Alpha virt. eigenvalues --    0.64345   0.64394   0.65023   0.65454   0.66085
 Alpha virt. eigenvalues --    0.66250   0.66971   0.67317   0.68250   0.68458
 Alpha virt. eigenvalues --    0.68835   0.69115   0.69401   0.70315   0.71004
 Alpha virt. eigenvalues --    0.71343   0.71814   0.72077   0.72366   0.72664
 Alpha virt. eigenvalues --    0.73064   0.73259   0.74379   0.74673   0.75050
 Alpha virt. eigenvalues --    0.75314   0.76318   0.76472   0.76620   0.77406
 Alpha virt. eigenvalues --    0.77754   0.78529   0.78974   0.78979   0.79215
 Alpha virt. eigenvalues --    0.79322   0.79893   0.80324   0.80531   0.80666
 Alpha virt. eigenvalues --    0.80745   0.81079   0.82296   0.82738   0.83029
 Alpha virt. eigenvalues --    0.83274   0.83496   0.83933   0.84200   0.84596
 Alpha virt. eigenvalues --    0.85042   0.85488   0.85628   0.85677   0.86359
 Alpha virt. eigenvalues --    0.86861   0.87860   0.88158   0.88576   0.88693
 Alpha virt. eigenvalues --    0.89334   0.89798   0.90490   0.90530   0.91316
 Alpha virt. eigenvalues --    0.92027   0.92130   0.92821   0.93830   0.93919
 Alpha virt. eigenvalues --    0.94931   0.95229   0.95719   0.95981   0.96156
 Alpha virt. eigenvalues --    0.96487   0.96613   0.97183   0.97917   0.98299
 Alpha virt. eigenvalues --    0.98730   0.99247   0.99418   0.99514   0.99965
 Alpha virt. eigenvalues --    1.00329   1.00529   1.01373   1.01627   1.02075
 Alpha virt. eigenvalues --    1.02726   1.03008   1.03034   1.03457   1.04152
 Alpha virt. eigenvalues --    1.04593   1.05212   1.05358   1.05417   1.05769
 Alpha virt. eigenvalues --    1.06315   1.06542   1.06627   1.06637   1.07118
 Alpha virt. eigenvalues --    1.07824   1.08417   1.08639   1.08789   1.09341
 Alpha virt. eigenvalues --    1.10153   1.10576   1.10770   1.11125   1.11359
 Alpha virt. eigenvalues --    1.11566   1.12269   1.12730   1.12962   1.13256
 Alpha virt. eigenvalues --    1.13418   1.14211   1.14287   1.14854   1.15256
 Alpha virt. eigenvalues --    1.15281   1.15434   1.15884   1.16666   1.18069
 Alpha virt. eigenvalues --    1.18567   1.18694   1.19006   1.19646   1.20955
 Alpha virt. eigenvalues --    1.21548   1.22514   1.23167   1.24684   1.24866
 Alpha virt. eigenvalues --    1.24944   1.25895   1.27782   1.28827   1.30326
 Alpha virt. eigenvalues --    1.32156   1.32481   1.32500   1.33030   1.34843
 Alpha virt. eigenvalues --    1.35249   1.36356   1.37124   1.38037   1.38049
 Alpha virt. eigenvalues --    1.39369   1.39891   1.40522   1.40919   1.41665
 Alpha virt. eigenvalues --    1.41769   1.42204   1.42209   1.42547   1.43153
 Alpha virt. eigenvalues --    1.43798   1.44249   1.44442   1.45203   1.45955
 Alpha virt. eigenvalues --    1.46887   1.47158   1.47404   1.47773   1.47781
 Alpha virt. eigenvalues --    1.48155   1.48497   1.48730   1.49106   1.49590
 Alpha virt. eigenvalues --    1.49880   1.50309   1.50435   1.50529   1.50757
 Alpha virt. eigenvalues --    1.51726   1.52017   1.52105   1.52344   1.53447
 Alpha virt. eigenvalues --    1.53542   1.54231   1.54963   1.55125   1.55364
 Alpha virt. eigenvalues --    1.55415   1.55605   1.55745   1.56138   1.56830
 Alpha virt. eigenvalues --    1.57239   1.57468   1.58056   1.59099   1.59396
 Alpha virt. eigenvalues --    1.60183   1.60257   1.61218   1.61306   1.62079
 Alpha virt. eigenvalues --    1.63056   1.63690   1.63925   1.64184   1.64610
 Alpha virt. eigenvalues --    1.65119   1.65520   1.67461   1.68043   1.68922
 Alpha virt. eigenvalues --    1.69405   1.69653   1.70408   1.70994   1.71447
 Alpha virt. eigenvalues --    1.71758   1.71769   1.72020   1.72204   1.72606
 Alpha virt. eigenvalues --    1.72794   1.73656   1.74003   1.74082   1.74493
 Alpha virt. eigenvalues --    1.74879   1.75371   1.75524   1.76909   1.77145
 Alpha virt. eigenvalues --    1.77497   1.78614   1.79252   1.79972   1.80225
 Alpha virt. eigenvalues --    1.80794   1.80951   1.80991   1.81411   1.81573
 Alpha virt. eigenvalues --    1.81991   1.82413   1.82851   1.83389   1.83641
 Alpha virt. eigenvalues --    1.84269   1.84738   1.85247   1.85800   1.86021
 Alpha virt. eigenvalues --    1.86417   1.86828   1.87024   1.87596   1.88188
 Alpha virt. eigenvalues --    1.88530   1.88671   1.88992   1.89133   1.89341
 Alpha virt. eigenvalues --    1.89536   1.90096   1.90162   1.91040   1.91139
 Alpha virt. eigenvalues --    1.91578   1.91581   1.92232   1.92511   1.92732
 Alpha virt. eigenvalues --    1.92968   1.93347   1.94091   1.94478   1.94638
 Alpha virt. eigenvalues --    1.94984   1.95053   1.95354   1.95653   1.95874
 Alpha virt. eigenvalues --    1.96943   1.97124   1.97140   1.97494   1.98404
 Alpha virt. eigenvalues --    1.99531   2.00281   2.00406   2.00699   2.01575
 Alpha virt. eigenvalues --    2.01884   2.02434   2.03339   2.03915   2.04976
 Alpha virt. eigenvalues --    2.05948   2.07562   2.07835   2.08996   2.09225
 Alpha virt. eigenvalues --    2.09351   2.09442   2.11428   2.11735   2.11957
 Alpha virt. eigenvalues --    2.12693   2.13409   2.13558   2.13849   2.15386
 Alpha virt. eigenvalues --    2.15818   2.16618   2.16647   2.17815   2.18201
 Alpha virt. eigenvalues --    2.18741   2.19695   2.20311   2.22508   2.22641
 Alpha virt. eigenvalues --    2.22659   2.23043   2.23160   2.24131   2.24493
 Alpha virt. eigenvalues --    2.24841   2.26174   2.26448   2.26554   2.27079
 Alpha virt. eigenvalues --    2.27453   2.27888   2.28065   2.28640   2.29341
 Alpha virt. eigenvalues --    2.29447   2.31222   2.31441   2.32355   2.33365
 Alpha virt. eigenvalues --    2.33977   2.35364   2.37310   2.37410   2.38704
 Alpha virt. eigenvalues --    2.39575   2.40319   2.40829   2.41631   2.42161
 Alpha virt. eigenvalues --    2.42856   2.43133   2.45264   2.45396   2.45967
 Alpha virt. eigenvalues --    2.47002   2.47028   2.47606   2.48360   2.50638
 Alpha virt. eigenvalues --    2.51299   2.51680   2.52359   2.53357   2.54016
 Alpha virt. eigenvalues --    2.54863   2.55551   2.55735   2.56271   2.56332
 Alpha virt. eigenvalues --    2.57784   2.58223   2.58691   2.59022   2.59676
 Alpha virt. eigenvalues --    2.60232   2.60640   2.60745   2.61119   2.61175
 Alpha virt. eigenvalues --    2.61428   2.62035   2.62087   2.62753   2.63133
 Alpha virt. eigenvalues --    2.64412   2.64450   2.64519   2.64665   2.65575
 Alpha virt. eigenvalues --    2.65891   2.66325   2.66517   2.67027   2.67489
 Alpha virt. eigenvalues --    2.67787   2.68227   2.68308   2.68636   2.68843
 Alpha virt. eigenvalues --    2.69357   2.69361   2.69855   2.70124   2.70353
 Alpha virt. eigenvalues --    2.70601   2.71456   2.71836   2.72290   2.72487
 Alpha virt. eigenvalues --    2.73020   2.73456   2.73920   2.74355   2.74642
 Alpha virt. eigenvalues --    2.75300   2.76097   2.76427   2.76432   2.77096
 Alpha virt. eigenvalues --    2.77513   2.77978   2.78544   2.78984   2.79323
 Alpha virt. eigenvalues --    2.79755   2.80105   2.80922   2.81386   2.81515
 Alpha virt. eigenvalues --    2.82262   2.83087   2.83330   2.83983   2.84879
 Alpha virt. eigenvalues --    2.85289   2.86076   2.86390   2.87031   2.87741
 Alpha virt. eigenvalues --    2.87905   2.88822   2.89592   2.90342   2.90520
 Alpha virt. eigenvalues --    2.91574   2.91720   2.91892   2.92435   2.93376
 Alpha virt. eigenvalues --    2.93456   2.94183   2.94350   2.95152   2.96044
 Alpha virt. eigenvalues --    2.96409   2.96529   2.98665   3.00042   3.00485
 Alpha virt. eigenvalues --    3.00971   3.01287   3.01821   3.04520   3.06410
 Alpha virt. eigenvalues --    3.07247   3.07534   3.08085   3.09174   3.10005
 Alpha virt. eigenvalues --    3.11435   3.11958   3.16047   3.16627   3.16806
 Alpha virt. eigenvalues --    3.17321   3.18365   3.18504   3.19922   3.20215
 Alpha virt. eigenvalues --    3.22188   3.22687   3.23336   3.25485   3.30067
 Alpha virt. eigenvalues --    3.30270   3.31076   3.31216   3.32031   3.34246
 Alpha virt. eigenvalues --    3.36039   3.36056   3.36650   3.36699   3.37093
 Alpha virt. eigenvalues --    3.37598   3.37640   3.38454   3.39706   3.39836
 Alpha virt. eigenvalues --    3.40617   3.42351   3.42578   3.43509   3.45488
 Alpha virt. eigenvalues --    3.45784   3.46323   3.47718   3.48606   3.48706
 Alpha virt. eigenvalues --    3.50485   3.50814   3.51588   3.51884   3.53693
 Alpha virt. eigenvalues --    3.55024   3.57630   3.59154   3.59305   3.60097
 Alpha virt. eigenvalues --    3.61746   3.62920   3.63257   3.63930   3.64187
 Alpha virt. eigenvalues --    3.64597   3.66561   3.66706   3.67900   3.68580
 Alpha virt. eigenvalues --    3.69188   3.69232   3.70557   3.70605   4.00421
 Alpha virt. eigenvalues --    4.00485   4.01325   4.01560   4.02333   4.02355
 Alpha virt. eigenvalues --    4.03061   4.03347   4.15824   4.16559   4.17733
 Alpha virt. eigenvalues --    4.19430   4.19796   4.20356   4.21784   4.22428
 Alpha virt. eigenvalues --    4.22729   4.24285   4.24703   4.25681   4.26903
 Alpha virt. eigenvalues --    4.29121   4.38081   4.41389   4.62240   4.64970
 Alpha virt. eigenvalues --    4.78557   4.79211   4.80024   4.80864   4.81254
 Alpha virt. eigenvalues --    4.81997   4.82398   4.82591   4.84884   4.85369
 Alpha virt. eigenvalues --   23.39563  23.42409  23.55012  23.57578  23.69629
 Alpha virt. eigenvalues --   23.71738  23.77718  23.79357  23.80658  23.81672
 Alpha virt. eigenvalues --   23.82419  23.83717  23.86410  23.87601  23.89276
 Alpha virt. eigenvalues --   23.89292  23.90534  23.90661  23.92314  23.94130
 Alpha virt. eigenvalues --   23.96970  23.98014  23.98698  23.99503  24.08646
 Alpha virt. eigenvalues --   24.09322  24.10019  24.10280  24.11041  24.11680
 Alpha virt. eigenvalues --   24.12074  24.13407  24.13724  24.13885  24.15113
 Alpha virt. eigenvalues --   24.15228  24.15230  24.15867  24.16740  24.16774
 Alpha virt. eigenvalues --   24.19929  24.19978  24.21629  24.21694
          Condensed to atoms (all electrons):
 Mulliken charges:
               1
     1  C   -0.011508
     2  C   -0.047102
     3  C   -0.130768
     4  C   -0.050366
     5  C   -0.071202
     6  C   -0.084752
     7  C   -0.111945
     8  C    0.000935
     9  C   -0.004025
    10  C   -0.045318
    11  H    0.096558
    12  H    0.087298
    13  H    0.078203
    14  H    0.085087
    15  H    0.097358
    16  H    0.098596
    17  C   -0.115003
    18  C    0.000935
    19  C   -0.008855
    20  C   -0.045318
    21  H    0.086206
    22  H    0.076908
    23  C   -0.111945
    24  C   -0.011508
    25  C   -0.004025
    26  C   -0.047102
    27  H    0.087298
    28  H    0.078203
    29  C   -0.130768
    30  C   -0.071202
    31  C   -0.050366
    32  C   -0.084752
    33  H    0.096558
    34  H    0.098596
    35  H    0.097358
    36  H    0.085087
    37  C   -0.016624
    38  C   -0.120069
    39  C   -0.063136
    40  C   -0.038961
    41  C   -0.086370
    42  C   -0.121959
    43  C   -0.030918
    44  C   -0.003194
    45  C   -0.004344
    46  C   -0.127745
    47  H    0.078300
    48  H    0.069852
    49  H    0.108922
    50  H    0.109746
    51  H    0.083674
    52  H    0.090577
    53  C   -0.034510
    54  C   -0.003194
    55  C   -0.010364
    56  C   -0.127745
    57  H    0.068473
    58  H    0.107549
    59  C   -0.030918
    60  C   -0.016624
    61  C   -0.004344
    62  C   -0.120069
    63  H    0.069852
    64  H    0.108922
    65  C   -0.063136
    66  C   -0.086370
    67  C   -0.038961
    68  C   -0.121959
    69  H    0.078300
    70  H    0.090577
    71  H    0.083674
    72  H    0.109746
 Sum of Mulliken charges =   0.00000
 Mulliken charges with hydrogens summed into heavy atoms:
               1
     1  C   -0.011508
     2  C   -0.047102
     3  C   -0.034211
     4  C    0.034721
     5  C    0.027394
     6  C    0.012605
     7  C   -0.024647
     8  C    0.000935
     9  C    0.074177
    10  C   -0.045318
    17  C   -0.028797
    18  C    0.000935
    19  C    0.068053
    20  C   -0.045318
    23  C   -0.024647
    24  C   -0.011508
    25  C    0.074177
    26  C   -0.047102
    29  C   -0.034211
    30  C    0.027394
    31  C    0.034721
    32  C    0.012605
    37  C   -0.016624
    38  C   -0.120069
    39  C    0.015163
    40  C    0.070785
    41  C    0.004207
    42  C   -0.038285
    43  C    0.038934
    44  C   -0.003194
    45  C    0.104578
    46  C   -0.127745
    53  C    0.033963
    54  C   -0.003194
    55  C    0.097185
    56  C   -0.127745
    59  C    0.038934
    60  C   -0.016624
    61  C    0.104578
    62  C   -0.120069
    65  C    0.015163
    66  C    0.004207
    67  C    0.070785
    68  C   -0.038285
         Mulliken charges condensed to fragments:
      1      0.013350
      2     -0.013350
 Electronic spatial extent (au):  <R**2>=          25522.8886
 Charge=              0.0000 electrons
 Dipole moment (field-independent basis, Debye):
    X=              1.5454    Y=             -1.2708    Z=              0.0000  Tot=              2.0007
 Quadrupole moment (field-independent basis, Debye-Ang):
   XX=           -249.6864   YY=           -245.8115   ZZ=           -219.4955
   XY=             -0.3551   XZ=              0.0000   YZ=              0.0000
 Traceless Quadrupole moment (field-independent basis, Debye-Ang):
   XX=            -11.3553   YY=             -7.4804   ZZ=             18.8357
   XY=             -0.3551   XZ=              0.0000   YZ=              0.0000
 Octapole moment (field-independent basis, Debye-Ang**2):
  XXX=           -161.7325  YYY=            -83.2363  ZZZ=              0.0000  XYY=             68.3080
  XXY=             16.6955  XXZ=              0.0000  XZZ=             35.5889  YZZ=            -22.6666
  YYZ=              0.0000  XYZ=              0.0000
 Hexadecapole moment (field-independent basis, Debye-Ang**3):
 XXXX=          -9778.4659 YYYY=          -2653.0921 ZZZZ=         -21028.7019 XXXY=           1726.5468
 XXXZ=              0.0000 YYYX=           1710.4414 YYYZ=              0.0000 ZZZX=              0.0000
 ZZZY=              0.0000 XXYY=          -2149.2080 XXZZ=          -5457.8340 YYZZ=          -4368.9563
 XXYZ=              0.0000 YYXZ=              0.0000 ZZXY=            506.3130
 N-N= 4.665258510606D+03 E-N=-1.326111009341D+04  KE= 1.686792608892D+03
 Symmetry A'   KE= 9.134878096555D+02
 Symmetry A"   KE= 7.733047992362D+02
 No NMR shielding tensors so no spin-rotation constants.
 Leave Link  601 at Wed Sep 27 16:39:52 2023, MaxMem=  3221225472 cpu:              51.8 elap:               1.4
 (Enter /home/center/opt/aarch64/apps/gaussian16/c01/g16/l122.exe)
 CPIOFr:  IOpCl= 0 IRwI=-1 IRwCP=  731 ICalc= -1 LCPTot=     1419224 Len1MO=     3708034 IndFrg=     1419224
 CPIOFr:  IOpCl= 0 IRwI=-1 IRwCP=  731 ICalc=  0 LCPTot=     1419224 Len1MO=     3708034 IndFrg=     5127258
 Counterpoise: doing calculation for fragment   1 using the basis set of the full-system, NewBq=T
 Leave Link  122 at Wed Sep 27 16:39:54 2023, MaxMem=  3221225472 cpu:               8.4 elap:               0.4
 (Enter /home/center/opt/aarch64/apps/gaussian16/c01/g16/l301.exe)
 Basis read from rwf:  (5D, 7F)
 No pseudopotential information found on rwf file.
 There are   528 symmetry adapted cartesian basis functions of A'  symmetry.
 There are   476 symmetry adapted cartesian basis functions of A"  symmetry.
 There are   504 symmetry adapted basis functions of A'  symmetry.
 There are   456 symmetry adapted basis functions of A"  symmetry.
   960 basis functions,  1632 primitive gaussians,  1004 cartesian basis functions
    73 alpha electrons       73 beta electrons
       nuclear repulsion energy      1494.3575060734 Hartrees.
 IExCor=  402 DFT=T Ex+Corr=B3LYP ExCW=0 ScaHFX=  0.200000
 ScaDFX=  0.800000  0.720000  1.000000  0.810000 ScalE2=  1.000000  1.000000
 IRadAn=      5 IRanWt=     -1 IRanGd=            0 ICorTp=0 IEmpDi=131
 NAtoms=   72 NActive=   72 NUniq=   40 SFac= 3.24D+00 NAtFMM=   60 NAOKFM=T Big=F
 Integral buffers will be    131072 words long.
 Raffenetti 2 integral format.
 Two-electron integral symmetry is turned on.
 R6Disp:  Grimme-D3 Dispersion energy=       -0.0303938888 Hartrees.
 Nuclear repulsion after empirical dispersion term =     1494.3271121846 Hartrees.
 No density basis found on file    718.
 Leave Link  301 at Wed Sep 27 16:39:57 2023, MaxMem=  3221225472 cpu:               4.7 elap:               0.2
 (Enter /home/center/opt/aarch64/apps/gaussian16/c01/g16/l302.exe)
 NPDir=0 NMtPBC=     1 NCelOv=     1 NCel=       1 NClECP=     1 NCelD=      1
         NCelK=      1 NCelE2=     1 NClLst=     1 CellRange=     0.0.
 One-electron integrals computed using PRISM.
 One-electron integral symmetry used in STVInt
 NBasis=   960 RedAO= T EigKep=  3.70D-05  NBF=   504   456
 NBsUse=   960 1.00D-06 EigRej= -1.00D+00 NBFU=   504   456
 Precomputing XC quadrature grid using
 IXCGrd= 4 IRadAn=           5 IRanWt=          -1 IRanGd=           0 AccXCQ= 0.00D+00.
 Generated NRdTot=       0 NPtTot=           0 NUsed=           0 NTot=          32
 NSgBfM=   989   989   989   989   989 MxSgAt=    72 MxSgA2=    72.
 Leave Link  302 at Wed Sep 27 16:40:01 2023, MaxMem=  3221225472 cpu:              59.4 elap:               1.6
 (Enter /home/center/opt/aarch64/apps/gaussian16/c01/g16/l303.exe)
 DipDrv:  MaxL=1.
 Leave Link  303 at Wed Sep 27 16:40:03 2023, MaxMem=  3221225472 cpu:              13.8 elap:               0.4
 (Enter /home/center/opt/aarch64/apps/gaussian16/c01/g16/l401.exe)
 ExpMin= 1.03D-01 ExpMax= 4.56D+03 ExpMxC= 6.82D+02 IAcc=3 IRadAn=         5 AccDes= 0.00D+00
 Harris functional with IExCor=  402 and IRadAn=       5 diagonalized for initial guess.
 HarFok:  IExCor=  402 AccDes= 0.00D+00 IRadAn=         5 IDoV= 1 UseB2=F ITyADJ=14
 ICtDFT=  3500011 ScaDFX=  1.000000  1.000000  1.000000  1.000000
 FoFCou: FMM=F IPFlag=           0 FMFlag=      100000 FMFlg1=        2000
         NFxFlg=           0 DoJE=T BraDBF=F KetDBF=T FulRan=T
         wScrn=  0.000000 ICntrl=       500 IOpCl=  0 I1Cent=   200000004 NGrid=           0
         NMat0=    1 NMatS0=      1 NMatT0=    0 NMatD0=    1 NMtDS0=    0 NMtDT0=    0
 Petite list used in FoFCou.
 Harris En= -847.066172966774    
 JPrj=0 DoOrth=F DoCkMO=F.
 Initial guess orbital symmetries:
       Occupied  (A") (A') (A") (A') (A") (A') (A") (A') (A') (A")
                 (A") (A') (A') (A') (A") (A') (A") (A') (A") (A')
                 (A') (A") (A') (A") (A') (A") (A') (A') (A") (A')
                 (A") (A") (A') (A') (A") (A") (A') (A") (A') (A')
                 (A') (A") (A") (A") (A') (A') (A") (A') (A') (A")
                 (A') (A") (A") (A') (A') (A") (A') (A") (A') (A")
                 (A") (A') (A') (A") (A') (A") (A') (A") (A') (A')
                 (A") (A") (A')
       Virtual   (A') (A") (A") (A') (A') (A") (A') (A") (A') (A")
                 (A') (A') (A") (A') (A") (A') (A") (A') (A') (A")
                 (A") (A") (A') (A') (A") (A') (A') (A') (A') (A")
                 (A') (A") (A') (A") (A") (A') (A') (A") (A") (A')
                 (A') (A") (A") (A') (A") (A') (A') (A") (A") (A')
                 (A") (A') (A") (A') (A') (A') (A") (A") (A') (A")
                 (A') (A') (A') (A") (A") (A') (A') (A") (A") (A')
                 (A') (A") (A") (A') (A') (A") (A') (A') (A") (A')
                 (A') (A') (A") (A") (A") (A') (A') (A") (A") (A')
                 (A") (A") (A") (A') (A') (A") (A") (A') (A') (A')
                 (A') (A") (A') (A') (A") (A') (A') (A") (A') (A")
                 (A") (A") (A') (A') (A") (A") (A') (A") (A") (A')
                 (A') (A') (A") (A") (A') (A') (A') (A') (A") (A')
                 (A") (A') (A') (A") (A") (A") (A') (A') (A") (A')
                 (A') (A") (A") (A') (A") (A') (A") (A") (A') (A")
                 (A') (A') (A") (A') (A") (A') (A") (A') (A") (A')
                 (A") (A') (A') (A") (A') (A") (A') (A") (A') (A")
                 (A') (A") (A') (A") (A') (A") (A') (A') (A') (A")
                 (A") (A') (A") (A') (A") (A") (A') (A') (A") (A")
                 (A') (A') (A') (A") (A') (A") (A") (A') (A") (A')
                 (A') (A") (A") (A') (A') (A") (A') (A') (A") (A")
                 (A') (A") (A") (A') (A') (A") (A') (A") (A") (A')
                 (A") (A') (A') (A") (A') (A") (A') (A') (A") (A')
                 (A') (A") (A') (A") (A") (A') (A") (A") (A') (A")
                 (A') (A") (A') (A') (A") (A') (A") (A') (A") (A")
                 (A') (A") (A') (A') (A') (A") (A") (A") (A') (A")
                 (A') (A") (A') (A') (A') (A") (A') (A') (A') (A")
                 (A') (A") (A") (A") (A") (A') (A") (A') (A') (A")
                 (A') (A") (A") (A') (A') (A") (A') (A') (A") (A')
                 (A") (A") (A') (A') (A') (A') (A") (A') (A") (A')
                 (A") (A') (A") (A") (A') (A") (A") (A") (A') (A")
                 (A') (A") (A') (A') (A') (A') (A") (A") (A') (A")
                 (A') (A") (A') (A') (A") (A') (A") (A') (A") (A')
                 (A') (A") (A') (A') (A') (A") (A") (A') (A") (A')
                 (A") (A") (A') (A") (A') (A") (A') (A") (A') (A')
                 (A") (A') (A") (A') (A") (A') (A") (A') (A') (A')
                 (A') (A") (A') (A") (A') (A") (A") (A") (A') (A")
                 (A') (A") (A') (A") (A") (A') (A') (A") (A") (A')
                 (A") (A') (A") (A') (A") (A') (A') (A") (A') (A")
                 (A') (A") (A') (A') (A") (A') (A") (A") (A') (A")
                 (A") (A') (A") (A') (A') (A") (A") (A') (A') (A")
                 (A') (A") (A') (A') (A") (A') (A") (A') (A') (A")
                 (A") (A") (A') (A") (A') (A") (A') (A") (A") (A')
                 (A") (A') (A') (A') (A') (A') (A") (A") (A") (A')
                 (A") (A') (A') (A") (A") (A') (A') (A') (A") (A')
                 (A") (A") (A') (A') (A") (A") (A') (A") (A') (A")
                 (A") (A') (A') (A') (A") (A") (A') (A") (A') (A")
                 (A') (A") (A') (A") (A') (A") (A") (A') (A') (A")
                 (A") (A') (A") (A') (A") (A') (A") (A') (A") (A')
                 (A') (A") (A') (A') (A") (A") (A') (A") (A') (A")
                 (A") (A') (A") (A') (A') (A") (A') (A') (A") (A")
                 (A') (A") (A') (A") (A') (A") (A") (A') (A') (A')
                 (A") (A") (A') (A') (A") (A") (A') (A') (A") (A')
                 (A") (A') (A') (A") (A') (A") (A') (A") (A') (A')
                 (A") (A') (A") (A") (A') (A') (A") (A') (A") (A')
                 (A") (A') (A') (A") (A") (A') (A") (A") (A') (A')
                 (A") (A') (A') (A") (A") (A') (A") (A') (A') (A")
                 (A') (A") (A') (A") (A') (A') (A") (A') (A") (A")
                 (A') (A") (A") (A') (A") (A") (A') (A') (A') (A')
                 (A') (A") (A') (A") (A') (A") (A") (A') (A") (A")
                 (A') (A') (A") (A") (A') (A') (A") (A") (A') (A')
                 (A") (A') (A') (A") (A') (A") (A') (A") (A') (A')
                 (A") (A") (A') (A") (A') (A") (A") (A') (A") (A')
                 (A') (A") (A") (A") (A') (A") (A') (A') (A') (A')
                 (A") (A") (A") (A') (A') (A") (A') (A') (A") (A")
                 (A') (A") (A') (A") (A') (A") (A") (A') (A') (A")
                 (A") (A") (A') (A") (A') (A") (A') (A') (A") (A')
                 (A') (A") (A") (A') (A") (A') (A') (A") (A') (A')
                 (A") (A') (A") (A') (A") (A') (A") (A') (A') (A")
                 (A') (A') (A") (A') (A") (A") (A") (A') (A') (A')
[...]
                 (A') (A") (A') (A') (A') (A") (A") (A") (A") (A')
                 (A') (A') (A") (A") (A') (A") (A') (A") (A') (A')
                 (A") (A") (A')
       Virtual   (A') (A") (A") (A') (A') (A") (A') (A') (A') (A")
                 (A") (A') (A") (A') (A") (A') (A") (A") (A') (A")
                 (A') (A') (A") (A') (A") (A') (A') (A') (A') (A")
                 (A") (A") (A") (A') (A') (A") (A') (A") (A') (A")
                 (A') (A') (A') (A") (A') (A") (A") (A') (A') (A")
                 (A") (A') (A') (A") (A') (A") (A") (A") (A') (A")
                 (A') (A') (A') (A') (A') (A") (A') (A') (A") (A")
                 (A") (A') (A') (A') (A") (A') (A") (A") (A") (A')
                 (A') (A") (A') (A") (A") (A') (A") (A') (A') (A')
                 (A') (A') (A") (A") (A") (A") (A') (A") (A') (A")
                 (A') (A') (A') (A") (A") (A') (A') (A") (A') (A")
                 (A') (A") (A") (A") (A') (A') (A") (A') (A') (A")
                 (A') (A") (A") (A') (A') (A") (A') (A") (A') (A")
                 (A") (A') (A') (A') (A') (A") (A") (A") (A') (A")
                 (A') (A") (A') (A") (A') (A') (A") (A") (A') (A")
                 (A') (A") (A') (A") (A') (A') (A") (A') (A") (A")
                 (A') (A") (A') (A') (A") (A") (A') (A") (A') (A")
                 (A') (A') (A") (A') (A') (A") (A") (A') (A') (A')
                 (A") (A') (A") (A") (A") (A") (A') (A") (A') (A')
                 (A") (A') (A") (A') (A') (A') (A") (A') (A") (A')
                 (A") (A") (A') (A') (A") (A") (A') (A') (A") (A')
                 (A') (A') (A') (A") (A") (A") (A") (A') (A') (A")
                 (A') (A") (A") (A') (A") (A') (A") (A') (A") (A')
                 (A") (A') (A') (A") (A') (A") (A") (A') (A') (A")
                 (A") (A') (A') (A") (A") (A') (A") (A") (A") (A')
                 (A') (A") (A') (A') (A") (A') (A') (A") (A') (A")
                 (A") (A') (A") (A') (A') (A") (A") (A") (A') (A')
                 (A") (A') (A') (A") (A") (A") (A') (A") (A') (A')
                 (A") (A') (A") (A') (A") (A') (A') (A') (A") (A')
                 (A") (A") (A') (A') (A") (A") (A') (A") (A') (A")
                 (A') (A') (A") (A") (A') (A') (A") (A') (A') (A')
                 (A") (A") (A') (A") (A') (A") (A') (A") (A') (A')
                 (A') (A") (A") (A") (A') (A") (A') (A') (A') (A")
                 (A") (A') (A") (A') (A') (A") (A') (A") (A") (A')
                 (A') (A") (A') (A") (A") (A') (A') (A") (A') (A")
                 (A') (A") (A') (A") (A') (A") (A") (A') (A') (A")
                 (A') (A") (A') (A') (A") (A") (A') (A") (A') (A')
                 (A") (A') (A") (A') (A') (A") (A') (A") (A') (A")
                 (A") (A') (A") (A') (A") (A') (A") (A') (A') (A")
                 (A") (A') (A") (A') (A') (A") (A") (A') (A') (A")
                 (A') (A") (A') (A") (A') (A') (A")
 The electronic state is 1-A'.
 Alpha  occ. eigenvalues --  -10.18931 -10.18930 -10.18896 -10.18895 -10.18848
 Alpha  occ. eigenvalues --  -10.18848 -10.18813 -10.18813 -10.17956 -10.17955
 Alpha  occ. eigenvalues --  -10.17920 -10.17920 -10.17919 -10.17919 -10.17875
 Alpha  occ. eigenvalues --  -10.17875 -10.17863 -10.17863 -10.17808 -10.17808
 Alpha  occ. eigenvalues --  -10.17781 -10.17781  -0.89340  -0.87865  -0.85549
 Alpha  occ. eigenvalues --   -0.82415  -0.79820  -0.78521  -0.78314  -0.75991
 Alpha  occ. eigenvalues --   -0.74255  -0.72901  -0.69196  -0.67344  -0.62728
 Alpha  occ. eigenvalues --   -0.62370  -0.61108  -0.59964  -0.59301  -0.57689
 Alpha  occ. eigenvalues --   -0.52709  -0.52573  -0.52293  -0.49654  -0.48513
 Alpha  occ. eigenvalues --   -0.47160  -0.46110  -0.45590  -0.45476  -0.43928
 Alpha  occ. eigenvalues --   -0.43182  -0.42578  -0.41808  -0.41572  -0.41386
 Alpha  occ. eigenvalues --   -0.40692  -0.40405  -0.39579  -0.38193  -0.36732
 Alpha  occ. eigenvalues --   -0.36341  -0.35550  -0.34094  -0.33809  -0.33058
 Alpha  occ. eigenvalues --   -0.32930  -0.31612  -0.29665  -0.28406  -0.26623
 Alpha  occ. eigenvalues --   -0.24364  -0.22582  -0.17855
 Alpha virt. eigenvalues --   -0.09755  -0.04464  -0.02747  -0.00147   0.02073
 Alpha virt. eigenvalues --    0.02370   0.03189   0.04746   0.04859   0.04871
 Alpha virt. eigenvalues --    0.06161   0.06575   0.07968   0.08162   0.08303
 Alpha virt. eigenvalues --    0.09607   0.10049   0.11524   0.11533   0.13796
 Alpha virt. eigenvalues --    0.14111   0.14670   0.18092   0.18194   0.18832
 Alpha virt. eigenvalues --    0.19391   0.22815   0.23002   0.24379   0.24942
 Alpha virt. eigenvalues --    0.25581   0.27528   0.27575   0.28012   0.28228
 Alpha virt. eigenvalues --    0.28947   0.29389   0.30158   0.30759   0.31175
 Alpha virt. eigenvalues --    0.32897   0.34528   0.36420   0.36484   0.37134
 Alpha virt. eigenvalues --    0.37503   0.37629   0.37651   0.38116   0.38643
 Alpha virt. eigenvalues --    0.39094   0.39439   0.39739   0.40236   0.40435
 Alpha virt. eigenvalues --    0.41918   0.41926   0.41940   0.42289   0.42318
 Alpha virt. eigenvalues --    0.42643   0.43748   0.44233   0.44835   0.45295
 Alpha virt. eigenvalues --    0.45683   0.45924   0.45953   0.46379   0.47165
 Alpha virt. eigenvalues --    0.47805   0.47809   0.47978   0.48073   0.48231
 Alpha virt. eigenvalues --    0.48568   0.49414   0.49572   0.51377   0.51846
 Alpha virt. eigenvalues --    0.52370   0.53118   0.53671   0.55998   0.57923
 Alpha virt. eigenvalues --    0.57955   0.59048   0.59201   0.60433   0.60585
 Alpha virt. eigenvalues --    0.60693   0.61101   0.61690   0.62105   0.62173
 Alpha virt. eigenvalues --    0.63432   0.63481   0.64458   0.64535   0.65533
 Alpha virt. eigenvalues --    0.66693   0.66910   0.67680   0.67724   0.70658
 Alpha virt. eigenvalues --    0.71305   0.71405   0.71494   0.72803   0.73989
 Alpha virt. eigenvalues --    0.75405   0.75894   0.76289   0.77801   0.77809
 Alpha virt. eigenvalues --    0.78943   0.79160   0.79723   0.81162   0.81509
 Alpha virt. eigenvalues --    0.82881   0.83001   0.84383   0.84585   0.84713
 Alpha virt. eigenvalues --    0.88087   0.89711   0.89765   0.91536   0.92083
 Alpha virt. eigenvalues --    0.92578   0.93749   0.95806   0.96107   0.96442
 Alpha virt. eigenvalues --    0.96590   0.96905   0.98547   1.00356   1.01118
 Alpha virt. eigenvalues --    1.02686   1.03027   1.03354   1.04405   1.05244
 Alpha virt. eigenvalues --    1.05439   1.05525   1.05950   1.07395   1.07547
 Alpha virt. eigenvalues --    1.07686   1.08438   1.10005   1.10036   1.12070
 Alpha virt. eigenvalues --    1.13223   1.13544   1.13650   1.14526   1.15341
 Alpha virt. eigenvalues --    1.17432   1.18332   1.19657   1.20432   1.23014
 Alpha virt. eigenvalues --    1.23618   1.27884   1.28234   1.30579   1.32076
 Alpha virt. eigenvalues --    1.32743   1.34942   1.37641   1.39236   1.39896
 Alpha virt. eigenvalues --    1.39942   1.40725   1.42751   1.43476   1.43554
 Alpha virt. eigenvalues --    1.45057   1.46086   1.47119   1.47538   1.48841
 Alpha virt. eigenvalues --    1.49280   1.49417   1.50258   1.50674   1.52268
 Alpha virt. eigenvalues --    1.52650   1.53402   1.54331   1.54372   1.54781
 Alpha virt. eigenvalues --    1.54807   1.57107   1.57715   1.58569   1.59882
 Alpha virt. eigenvalues --    1.60106   1.62692   1.63242   1.64856   1.66641
 Alpha virt. eigenvalues --    1.69292   1.69605   1.69709   1.70649   1.71804
 Alpha virt. eigenvalues --    1.72459   1.72619   1.73075   1.73096   1.73680
 Alpha virt. eigenvalues --    1.77494   1.78519   1.79157   1.79419   1.80511
 Alpha virt. eigenvalues --    1.81616   1.81887   1.82058   1.83581   1.84039
 Alpha virt. eigenvalues --    1.85487   1.87392   1.87456   1.87577   1.87728
 Alpha virt. eigenvalues --    1.88131   1.88613   1.90743   1.91387   1.92190
 Alpha virt. eigenvalues --    1.92193   1.92572   1.92670   1.93517   1.93938
 Alpha virt. eigenvalues --    1.94544   1.95483   1.97262   1.99429   2.00088
 Alpha virt. eigenvalues --    2.00602   2.01362   2.03019   2.05757   2.08293
 Alpha virt. eigenvalues --    2.09111   2.09256   2.09792   2.12192   2.14098
 Alpha virt. eigenvalues --    2.15528   2.15584   2.17200   2.19751   2.20833
 Alpha virt. eigenvalues --    2.21576   2.22525   2.23381   2.24503   2.26441
 Alpha virt. eigenvalues --    2.26972   2.27242   2.27719   2.28046   2.29391
 Alpha virt. eigenvalues --    2.33301   2.35725   2.39155   2.39384   2.40817
 Alpha virt. eigenvalues --    2.42649   2.43076   2.45776   2.45994   2.46870
 Alpha virt. eigenvalues --    2.51623   2.51954   2.53354   2.53485   2.55138
 Alpha virt. eigenvalues --    2.56159   2.58701   2.58838   2.59764   2.59776
 Alpha virt. eigenvalues --    2.60682   2.61147   2.61719   2.62222   2.63349
 Alpha virt. eigenvalues --    2.63999   2.64478   2.66054   2.66794   2.67121
 Alpha virt. eigenvalues --    2.67374   2.68356   2.68872   2.68876   2.69372
 Alpha virt. eigenvalues --    2.69557   2.69907   2.70083   2.70281   2.73482
 Alpha virt. eigenvalues --    2.74771   2.74836   2.76066   2.77101   2.77577
 Alpha virt. eigenvalues --    2.78232   2.78455   2.78850   2.80822   2.82359
 Alpha virt. eigenvalues --    2.85535   2.85993   2.86737   2.87294   2.90966
 Alpha virt. eigenvalues --    2.91783   2.92195   2.93676   2.95232   2.95887
 Alpha virt. eigenvalues --    2.99270   2.99858   3.03165   3.05604   3.06852
 Alpha virt. eigenvalues --    3.07371   3.15988   3.16029   3.16647   3.19843
 Alpha virt. eigenvalues --    3.20017   3.23601   3.29134   3.29680   3.31610
 Alpha virt. eigenvalues --    3.35095   3.35458   3.35677   3.35858   3.38023
 Alpha virt. eigenvalues --    3.39887   3.41413   3.44960   3.45362   3.47993
 Alpha virt. eigenvalues --    3.48278   3.50401   3.53073   3.57439   3.58649
 Alpha virt. eigenvalues --    3.61466   3.62620   3.63208   3.63698   3.65910
 Alpha virt. eigenvalues --    3.67534   3.67678   4.00384   4.00442   4.01859
 Alpha virt. eigenvalues --    4.02182   4.16133   4.16678   4.17360   4.21240
 Alpha virt. eigenvalues --    4.22396   4.22517   4.25488   4.38492   4.62290
 Alpha virt. eigenvalues --    4.79179   4.79740   4.80562   4.82562   4.83014
 Alpha virt. eigenvalues --   23.39176  23.54541  23.69085  23.77378  23.80419
 Alpha virt. eigenvalues --   23.81537  23.86099  23.89067  23.89154  23.92210
 Alpha virt. eigenvalues --   23.97563  23.98365  24.09049  24.09932  24.10529
 Alpha virt. eigenvalues --   24.12220  24.13779  24.14375  24.15775  24.15810
 Alpha virt. eigenvalues --   24.20452  24.20497
          Condensed to atoms (all electrons):
 Mulliken charges:
               1
     1  C    0.000000
     2  C    0.000000
     3  C    0.000000
     4  C    0.000000
     5  C    0.000000
     6  C    0.000000
     7  C    0.000000
     8  C    0.000000
     9  C    0.000000
    10  C    0.000000
    11  H    0.000000
    12  H    0.000000
    13  H    0.000000
    14  H    0.000000
    15  H    0.000000
    16  H    0.000000
    17  C    0.000000
    18  C    0.000000
    19  C    0.000000
    20  C    0.000000
    21  H    0.000000
    22  H    0.000000
    23  C    0.000000
    24  C    0.000000
    25  C    0.000000
    26  C    0.000000
    27  H    0.000000
    28  H    0.000000
    29  C    0.000000
    30  C    0.000000
    31  C    0.000000
    32  C    0.000000
    33  H    0.000000
    34  H    0.000000
    35  H    0.000000
    36  H    0.000000
    37  C   -0.059168
    38  C   -0.059168
    39  C   -0.055977
    40  C   -0.055977
    41  C   -0.092198
    42  C   -0.092198
    43  C   -0.016525
    44  C   -0.054498
    45  C   -0.016525
    46  C   -0.054498
    47  H    0.082122
    48  H    0.074853
    49  H    0.074853
    50  H    0.082122
    51  H    0.094847
    52  H    0.094847
    53  C   -0.020341
    54  C   -0.054498
    55  C   -0.020341
    56  C   -0.054498
    57  H    0.073428
    58  H    0.073428
    59  C   -0.016525
    60  C   -0.059168
    61  C   -0.016525
    62  C   -0.059168
    63  H    0.074853
    64  H    0.074853
    65  C   -0.055977
    66  C   -0.092198
    67  C   -0.055977
    68  C   -0.092198
    69  H    0.082122
    70  H    0.094847
    71  H    0.094847
    72  H    0.082122
 Sum of Mulliken charges =   0.00000
 Mulliken charges with hydrogens summed into heavy atoms:
               1
     1  C    0.000000
     2  C    0.000000
     3  C    0.000000
     4  C    0.000000
     5  C    0.000000
     6  C    0.000000
     7  C    0.000000
     8  C    0.000000
     9  C    0.000000
    10  C    0.000000
    17  C    0.000000
    18  C    0.000000
    19  C    0.000000
    20  C    0.000000
    23  C    0.000000
    24  C    0.000000
    25  C    0.000000
    26  C    0.000000
    29  C    0.000000
    30  C    0.000000
    31  C    0.000000
    32  C    0.000000
    37  C   -0.059168
    38  C   -0.059168
    39  C    0.026144
    40  C    0.026144
    41  C    0.002649
    42  C    0.002649
    43  C    0.058328
    44  C   -0.054498
    45  C    0.058328
    46  C   -0.054498
    53  C    0.053087
    54  C   -0.054498
    55  C    0.053087
    56  C   -0.054498
    59  C    0.058328
    60  C   -0.059168
    61  C    0.058328
    62  C   -0.059168
    65  C    0.026144
    66  C    0.002649
    67  C    0.026144
    68  C    0.002649
         Mulliken charges condensed to fragments:
      1      0.000000
      2      0.000000
 Electronic spatial extent (au):  <R**2>=          11383.6872
 Charge=              0.0000 electrons
 Dipole moment (field-independent basis, Debye):
    X=              0.0000    Y=              0.0000    Z=              0.0000  Tot=              0.0000
 Quadrupole moment (field-independent basis, Debye-Ang):
   XX=           -136.3921   YY=           -110.7480   ZZ=           -109.0115
   XY=              0.0000   XZ=              0.0000   YZ=              0.0000
 Traceless Quadrupole moment (field-independent basis, Debye-Ang):
   XX=            -17.6749   YY=              7.9692   ZZ=              9.7057
   XY=              0.0000   XZ=              0.0000   YZ=              0.0000
 Octapole moment (field-independent basis, Debye-Ang**2):
  XXX=            578.6625  YYY=            469.8641  ZZZ=              0.0000  XYY=            156.6214
  XXY=            192.8875  XXZ=              0.0000  XZZ=            154.1655  YZZ=            154.1655
  YYZ=              0.0000  XYZ=              0.0000
 Hexadecapole moment (field-independent basis, Debye-Ang**3):
 XXXX=          -1791.1085 YYYY=          -2445.6933 ZZZZ=         -10461.4324 XXXY=           -818.3523
 XXXZ=              0.0000 YYYX=           -664.4882 YYYZ=              0.0000 ZZZX=              0.0000
 ZZZY=              0.0000 XXYY=           -750.6955 XXZZ=          -2425.9549 YYZZ=          -2187.2373
 XXYZ=              0.0000 YYXZ=              0.0000 ZZXY=           -218.0229
 N-N= 1.494327112139D+03 E-N=-4.953709175830D+03  KE= 8.433374905080D+02
 Symmetry A'   KE= 4.567052305447D+02
 Symmetry A"   KE= 3.866322599633D+02
 No NMR shielding tensors so no spin-rotation constants.
 Leave Link  601 at Wed Sep 27 16:58:09 2023, MaxMem=  3221225472 cpu:              19.0 elap:               0.5
 (Enter /home/center/opt/aarch64/apps/gaussian16/c01/g16/l122.exe)
 CPIOFr:  IOpCl= 0 IRwI=-1 IRwCP=  731 ICalc=  4 LCPTot=     1419224 Len1MO=     3708034 IndFrg=    19959394
 Restoring MOs from calculation   1 to rwf.
 CPIOFr:  IOpCl= 0 IRwI=-2 IRwCP=  731 ICalc=  0 LCPTot=     1419224 Len1MO=     3708034 IndFrg=     5127258
 Counterpoise corrected energy =   -1694.032363904534
                   BSSE energy =       0.006927890076
              sum of fragments =   -1694.039683044257
           complexation energy =       0.25 kcal/mole (raw)
           complexation energy =       4.59 kcal/mole (corrected)
 Leave Link  122 at Wed Sep 27 16:58:11 2023, MaxMem=  3221225472 cpu:               8.3 elap:               0.4
 (Enter /home/center/opt/aarch64/apps/gaussian16/c01/g16/l9999.exe)

 Test job not archived.
 1\1\GINC-FX0409\SP\RB3LYP\6-311G(d,p)\C44H28\Z40145W\27-Sep-2023\0\\#P
  TEST b3lyp/6-311G** EmpiricalDispersion=GD3 counterpoise=2\\pentacene
 _A1=0_A2=0_A3=45_p2\\0,1\C,0,-0.5039478476,0.5239478476,-3.6612755801\
 C,0,0.5239480325,-0.5039480325,-3.6612755629\C,0,-0.9861248463,1.00612
 48463,-4.9235927708\C,0,1.0061250889,-0.9861250889,-4.9235926697\C,0,-
 0.4963213507,0.5163213507,-6.096356521\C,0,0.5163216812,-0.4963216812,
 -6.0963564796\C,0,-0.9844684311,1.0044684311,-2.4533174875\C,0,-0.5044
 88426,0.524488426,-1.2140288145\C,0,1.0044685359,-0.9844685359,-2.4533
 173917\C,0,0.5244885437,-0.5044885437,-1.2140288362\H,0,-1.7533559667,
 1.7733559667,-4.9232600459\H,0,-1.7521866813,1.7721866813,-2.453928581
 5\H,0,1.7721859268,-1.7521859268,-2.4539284818\H,0,1.7733558421,-1.753
 3558421,-4.9232597785\H,0,0.8905568758,-0.8705568758,-7.0425276922\H,0
 ,-0.8705565046,0.8905565046,-7.042527775\C,0,-0.9848184961,1.004818496
 1,0.0099998782\C,0,-0.5044883957,0.5244883957,1.2340295553\C,0,1.00481
 85643,-0.9848185643,0.0099998696\C,0,0.5244885146,-0.5044885146,1.2340
 295261\H,0,-1.7524699697,1.7724699697,0.0099999205\H,0,1.772468921,-1.
 752468921,0.0099999641\C,0,-0.9844683048,1.0044683048,2.4733171385\C,0
 ,-0.5039477114,0.5239477114,3.681276331\C,0,1.0044684211,-0.9844684211
 ,2.4733170835\C,0,0.5239479079,-0.5039479079,3.6812763217\H,0,-1.75218
 65527,1.7721865527,2.4739285326\H,0,1.7721858092,-1.7521858092,2.47392
 83796\C,0,-0.9861245177,1.0061245177,4.9435920588\C,0,-0.4963209372,0.
 5163209372,6.116356633\C,0,1.0061247659,-0.9861247659,4.9435919377\C,0
 ,0.5163212637,-0.4963212637,6.1163566075\H,0,-1.7533556504,1.773355650
 4,4.9432601504\H,0,-0.8705567426,0.8905567426,7.0625274368\H,0,0.89055
 70967,-0.8705570967,7.0625272142\H,0,1.7733555414,-1.7533555414,4.9432
 599297\C,0,3.4960521524,0.5239478476,-3.6612755801\C,0,4.5239480325,-0
 .5039480325,-3.6612755629\C,0,3.0138751537,1.0061248463,-4.9235927708\
 C,0,5.0061250889,-0.9861250889,-4.9235926697\C,0,3.5036786493,0.516321
 3507,-6.096356521\C,0,4.5163216812,-0.4963216812,-6.0963564796\C,0,3.0
 155315689,1.0044684311,-2.4533174875\C,0,3.495511574,0.524488426,-1.21
 40288145\C,0,5.0044685359,-0.9844685359,-2.4533173917\C,0,4.5244885437
 ,-0.5044885437,-1.2140288362\H,0,2.2466440333,1.7733559667,-4.92326004
 59\H,0,2.2478133187,1.7721866813,-2.4539285815\H,0,5.7721859268,-1.752
 1859268,-2.4539284818\H,0,5.7733558421,-1.7533558421,-4.9232597785\H,0
 ,4.8905568758,-0.8705568758,-7.0425276922\H,0,3.1294434954,0.890556504
 6,-7.042527775\C,0,3.0151815039,1.0048184961,0.0099998782\C,0,3.495511
 6043,0.5244883957,1.2340295553\C,0,5.0048185643,-0.9848185643,0.009999
 8696\C,0,4.5244885146,-0.5044885146,1.2340295261\H,0,2.2475300303,1.77
 24699697,0.0099999205\H,0,5.772468921,-1.752468921,0.0099999641\C,0,3.
 0155316952,1.0044683048,2.4733171385\C,0,3.4960522886,0.5239477114,3.6
 81276331\C,0,5.0044684211,-0.9844684211,2.4733170835\C,0,4.5239479079,
 -0.5039479079,3.6812763217\H,0,2.2478134473,1.7721865527,2.4739285326\
 H,0,5.7721858092,-1.7521858092,2.4739283796\C,0,3.0138754823,1.0061245
 177,4.9435920588\C,0,3.5036790628,0.5163209372,6.116356633\C,0,5.00612
 47659,-0.9861247659,4.9435919377\C,0,4.5163212637,-0.4963212637,6.1163
 566075\H,0,2.2466443496,1.7733556504,4.9432601504\H,0,3.1294432574,0.8
 905567426,7.0625274368\H,0,4.8905570967,-0.8705570967,7.0625272142\H,0
 ,5.7733555414,-1.7533555414,4.9432599297\\Version=Fujitsu-Arm-G16RevC.
 01\State=1-A'\HF=-847.0198415\RMSD=3.181e-09\Dipole=0.0000028,-0.00000
 24,0.\Quadrupole=-9.7924476,-5.3262311,15.1186787,-17.4355383,0.,0.\PG
 =CS [SG(C4H4),X(C40H24)]\\@


 A FOOL CAN ASK MORE QUESTIONS THAN
 A WISE MAN CAN ANSWER.
 Job cpu time:       0 days  4 hours  1 minutes  7.1 seconds.
 Elapsed time:       0 days  0 hours  6 minutes 14.4 seconds.
 File lengths (MBytes):  RWF=    718 Int=      0 D2E=      0 Chk=    208 Scr=      1
 Normal termination of Gaussian 16 at Wed Sep 27 16:58:18 2023.
