 Entering Gaussian System, Link 0=g16
 Initial command:
 /home/center/opt/aarch64/apps/gaussian16/c01/g16/l1.exe "/data/tmp/Gtmp/1006977/Gau-50.inp" -scrdir="/data/tmp/Gtmp/1006977/"
 Entering Link 1 = /home/center/opt/aarch64/apps/gaussian16/c01/g16/l1.exe PID=        51.
  
 Copyright (c) 1988-2019, Gaussian, Inc.  All Rights Reserved.
  
 This is part of the Gaussian(R) 16 program.  It is based on
 the Gaussian(R) 09 system (copyright 2009, Gaussian, Inc.),
 the Gaussian(R) 03 system (copyright 2003, Gaussian, Inc.),
 the Gaussian(R) 98 system (copyright 1998, Gaussian, Inc.),
 the Gaussian(R) 94 system (copyright 1995, Gaussian, Inc.),
 the Gaussian 92(TM) system (copyright 1992, Gaussian, Inc.),
 the Gaussian 90(TM) system (copyright 1990, Gaussian, Inc.),
 the Gaussian 88(TM) system (copyright 1988, Gaussian, Inc.),
 the Gaussian 86(TM) system (copyright 1986, Carnegie Mellon
 University), and the Gaussian 82(TM) system (copyright 1983,
 Carnegie Mellon University). Gaussian is a federally registered
 trademark of Gaussian, Inc.
  
 This software contains proprietary and confidential information,
 including trade secrets, belonging to Gaussian, Inc.
  
 This software is provided under written license and may be
 used, copied, transmitted, or stored only in accord with that
 written license.
  
 The following legend is applicable only to US Government
 contracts under FAR:
  
                    RESTRICTED RIGHTS LEGEND
  
 Use, reproduction and disclosure by the US Government is
 subject to restrictions as set forth in subparagraphs (a)
 and (c) of the Commercial Computer Software - Restricted
 Rights clause in FAR 52.227-19.
  
 Gaussian, Inc.
 340 Quinnipiac St., Bldg. 40, Wallingford CT 06492
  
  
 ---------------------------------------------------------------
 Warning -- This program may not be used in any manner that
 competes with the business of Gaussian, Inc. or will provide
 assistance to any competitor of Gaussian, Inc.  The licensee
 of this program is prohibited from giving any competitor of
 Gaussian, Inc. access to this program.  By using this program,
 the user acknowledges that Gaussian, Inc. is engaged in the
 business of creating and licensing software in the field of
 computational chemistry and represents and warrants to the
 licensee that it is not a competitor of Gaussian, Inc. and that
 it will not use this program in any manner prohibited above.
 ---------------------------------------------------------------
  

 Cite this work as:
 Gaussian 16, Revision C.01,
 M. J. Frisch, G. W. Trucks, H. B. Schlegel, G. E. Scuseria, 
 M. A. Robb, J. R. Cheeseman, G. Scalmani, V. Barone, 
 G. A. Petersson, H. Nakatsuji, X. Li, M. Caricato, A. V. Marenich, 
 J. Bloino, B. G. Janesko, R. Gomperts, B. Mennucci, H. P. Hratchian, 
 J. V. Ortiz, A. F. Izmaylov, J. L. Sonnenberg, D. Williams-Young, 
 F. Ding, F. Lipparini, F. Egidi, J. Goings, B. Peng, A. Petrone, 
 T. Henderson, D. Ranasinghe, V. G. Zakrzewski, J. Gao, N. Rega, 
 G. Zheng, W. Liang, M. Hada, M. Ehara, K. Toyota, R. Fukuda, 
 J. Hasegawa, M. Ishida, T. Nakajima, Y. Honda, O. Kitao, H. Nakai, 
 T. Vreven, K. Throssell, J. A. Montgomery, Jr., J. E. Peralta, 
 F. Ogliaro, M. J. Bearpark, J. J. Heyd, E. N. Brothers, K. N. Kudin, 
 V. N. Staroverov, T. A. Keith, R. Kobayashi, J. Normand, 
 K. Raghavachari, A. P. Rendell, J. C. Burant, S. S. Iyengar, 
 J. Tomasi, M. Cossi, J. M. Millam, M. Klene, C. Adamo, R. Cammi, 
 J. W. Ochterski, R. L. Martin, K. Morokuma, O. Farkas, 
 J. B. Foresman, and D. J. Fox, Gaussian, Inc., Wallingford CT, 2019.
 
 ************************************************
 Gaussian 16:  Fujitsu-Arm-G16RevC.01  3-Jul-2019
                   27-Sep-2023 
 ************************************************
 %mem=24GB
 %nproc=42
 Will use up to   42 processors via shared memory.
 -------------------------------------------------------------
 #P TEST b3lyp/6-311G** EmpiricalDispersion=GD3 counterpoise=2
 -------------------------------------------------------------
 1/38=1,62=2,172=1/1;
 2/12=2,17=6,18=5,40=1/2;
 1/38=1,53=2,62=2,63=1/22;
 3/5=4,6=6,7=101,11=2,25=1,30=1,74=-5,124=31/1,2,3;
 4//1;
 5/5=2,38=5/2;
 6/7=2,8=2,9=2,10=2,28=1/1;
 1/53=2,62=2,63=1/22;
 3/5=7,6=11,7=101,11=2,25=1,30=1,74=-5,82=7,124=31/1,2,3;
 4//1;
 5/5=2,38=5/2;
 6/7=2,8=2,9=2,10=2,28=1/1;
 1/53=2,62=2,63=1/22(-4);
 99/5=1,9=1/99;
 Leave Link    1 at Wed Sep 27 16:57:22 2023, MaxMem=  3221225472 cpu:               6.4 elap:               0.2
 (Enter /home/center/opt/aarch64/apps/gaussian16/c01/g16/l101.exe)
 ----------------------------
 pentacene_A1=0_A2=0_A3=45_t1
 ----------------------------
 Symbolic Z-matrix:
 Charge =  0 Multiplicity = 1 in supermolecule
 Charge =  0 Multiplicity = 1 in fragment      1.
 Charge =  0 Multiplicity = 1 in fragment      2.
 C(Fragment=1)        -0.50395   0.52395  -3.66128 
 C(Fragment=1)         0.52395  -0.50395  -3.66128 
 C(Fragment=1)        -0.98612   1.00612  -4.92359 
 C(Fragment=1)         1.00613  -0.98613  -4.92359 
 C(Fragment=1)        -0.49632   0.51632  -6.09636 
 C(Fragment=1)         0.51632  -0.49632  -6.09636 
 C(Fragment=1)        -0.98447   1.00447  -2.45332 
 C(Fragment=1)        -0.50449   0.52449  -1.21403 
 C(Fragment=1)         1.00447  -0.98447  -2.45332 
 C(Fragment=1)         0.52449  -0.50449  -1.21403 
 H(Fragment=1)        -1.75336   1.77336  -4.92326 
 H(Fragment=1)        -1.75219   1.77219  -2.45393 
 H(Fragment=1)         1.77219  -1.75219  -2.45393 
 H(Fragment=1)         1.77336  -1.75336  -4.92326 
 H(Fragment=1)         0.89056  -0.87056  -7.04253 
 H(Fragment=1)        -0.87056   0.89056  -7.04253 
 C(Fragment=1)        -0.98482   1.00482   0.01 
 C(Fragment=1)        -0.50449   0.52449   1.23403 
 C(Fragment=1)         1.00482  -0.98482   0.01 
 C(Fragment=1)         0.52449  -0.50449   1.23403 
 H(Fragment=1)        -1.75247   1.77247   0.01 
 H(Fragment=1)         1.77247  -1.75247   0.01 
 C(Fragment=1)        -0.98447   1.00447   2.47332 
 C(Fragment=1)        -0.50395   0.52395   3.68128 
 C(Fragment=1)         1.00447  -0.98447   2.47332 
 C(Fragment=1)         0.52395  -0.50395   3.68128 
 H(Fragment=1)        -1.75219   1.77219   2.47393 
 H(Fragment=1)         1.77219  -1.75219   2.47393 
 C(Fragment=1)        -0.98612   1.00612   4.94359 
 C(Fragment=1)        -0.49632   0.51632   6.11636 
 C(Fragment=1)         1.00612  -0.98612   4.94359 
 C(Fragment=1)         0.51632  -0.49632   6.11636 
 H(Fragment=1)        -1.75336   1.77336   4.94326 
 H(Fragment=1)        -0.87056   0.89056   7.06253 
 H(Fragment=1)         0.89056  -0.87056   7.06253 
 H(Fragment=1)         1.77336  -1.75336   4.94326 
 C(Fragment=2)         4.52395   4.52395  -3.66128 
 C(Fragment=2)         3.49605   3.49605  -3.66128 
 C(Fragment=2)         5.00612   5.00612  -4.92359 
 C(Fragment=2)         3.01387   3.01387  -4.92359 
 C(Fragment=2)         4.51632   4.51632  -6.09636 
 C(Fragment=2)         3.50368   3.50368  -6.09636 
 C(Fragment=2)         5.00447   5.00447  -2.45332 
 C(Fragment=2)         4.52449   4.52449  -1.21403 
 C(Fragment=2)         3.01553   3.01553  -2.45332 
 C(Fragment=2)         3.49551   3.49551  -1.21403 
 H(Fragment=2)         5.77336   5.77336  -4.92326 
 H(Fragment=2)         5.77219   5.77219  -2.45393 
 H(Fragment=2)         2.24781   2.24781  -2.45393 
 H(Fragment=2)         2.24664   2.24664  -4.92326 
 H(Fragment=2)         3.12944   3.12944  -7.04253 
 H(Fragment=2)         4.89056   4.89056  -7.04253 
 C(Fragment=2)         5.00482   5.00482   0.01 
 C(Fragment=2)         4.52449   4.52449   1.23403 
 C(Fragment=2)         3.01518   3.01518   0.01 
 C(Fragment=2)         3.49551   3.49551   1.23403 
 H(Fragment=2)         5.77247   5.77247   0.01 
 H(Fragment=2)         2.24753   2.24753   0.01 
 C(Fragment=2)         5.00447   5.00447   2.47332 
 C(Fragment=2)         4.52395   4.52395   3.68128 
 C(Fragment=2)         3.01553   3.01553   2.47332 
 C(Fragment=2)         3.49605   3.49605   3.68128 
 H(Fragment=2)         5.77219   5.77219   2.47393 
 H(Fragment=2)         2.24781   2.24781   2.47393 
 C(Fragment=2)         5.00612   5.00612   4.94359 
 C(Fragment=2)         4.51632   4.51632   6.11636 
 C(Fragment=2)         3.01388   3.01388   4.94359 
 C(Fragment=2)         3.50368   3.50368   6.11636 
 H(Fragment=2)         5.77336   5.77336   4.94326 
 H(Fragment=2)         4.89056   4.89056   7.06253 
 H(Fragment=2)         3.12944   3.12944   7.06253 
 H(Fragment=2)         2.24664   2.24664   4.94326 
 
 ITRead=  0  0  0  0  0  0  0  0  0  0  0  0  0  0  0  0  0  0  0  0
 ITRead=  0  0  0  0  0  0  0  0  0  0  0  0  0  0  0  0  0  0  0  0
 ITRead=  0  0  0  0  0  0  0  0  0  0  0  0  0  0  0  0  0  0  0  0
 ITRead=  0  0  0  0  0  0  0  0  0  0  0  0
 MicOpt= -1 -1 -1 -1 -1 -1 -1 -1 -1 -1 -1 -1 -1 -1 -1 -1 -1 -1 -1 -1
 MicOpt= -1 -1 -1 -1 -1 -1 -1 -1 -1 -1 -1 -1 -1 -1 -1 -1 -1 -1 -1 -1
 MicOpt= -1 -1 -1 -1 -1 -1 -1 -1 -1 -1 -1 -1 -1 -1 -1 -1 -1 -1 -1 -1
 MicOpt= -1 -1 -1 -1 -1 -1 -1 -1 -1 -1 -1 -1
 NAtoms=     72 NQM=       72 NQMF=       0 NMMI=      0 NMMIF=      0
                NMic=       0 NMicF=      0.
                    Isotopes and Nuclear Properties:
 (Nuclear quadrupole moments (NQMom) in fm**2, nuclear magnetic moments (NMagM)
  in nuclear magnetons)

  Atom         1           2           3           4           5           6           7           8           9          10
 IAtWgt=          12          12          12          12          12          12          12          12          12          12
 AtmWgt=  12.0000000  12.0000000  12.0000000  12.0000000  12.0000000  12.0000000  12.0000000  12.0000000  12.0000000  12.0000000
 NucSpn=           0           0           0           0           0           0           0           0           0           0
 AtZEff=   0.0000000   0.0000000   0.0000000   0.0000000   0.0000000   0.0000000   0.0000000   0.0000000   0.0000000   0.0000000
 NQMom=    0.0000000   0.0000000   0.0000000   0.0000000   0.0000000   0.0000000   0.0000000   0.0000000   0.0000000   0.0000000
 NMagM=    0.0000000   0.0000000   0.0000000   0.0000000   0.0000000   0.0000000   0.0000000   0.0000000   0.0000000   0.0000000
 AtZNuc=   6.0000000   6.0000000   6.0000000   6.0000000   6.0000000   6.0000000   6.0000000   6.0000000   6.0000000   6.0000000

  Atom        11          12          13          14          15          16          17          18          19          20
 IAtWgt=           1           1           1           1           1           1          12          12          12          12
 AtmWgt=   1.0078250   1.0078250   1.0078250   1.0078250   1.0078250   1.0078250  12.0000000  12.0000000  12.0000000  12.0000000
 NucSpn=           1           1           1           1           1           1           0           0           0           0
 AtZEff=   0.0000000   0.0000000   0.0000000   0.0000000   0.0000000   0.0000000   0.0000000   0.0000000   0.0000000   0.0000000
 NQMom=    0.0000000   0.0000000   0.0000000   0.0000000   0.0000000   0.0000000   0.0000000   0.0000000   0.0000000   0.0000000
 NMagM=    2.7928460   2.7928460   2.7928460   2.7928460   2.7928460   2.7928460   0.0000000   0.0000000   0.0000000   0.0000000
 AtZNuc=   1.0000000   1.0000000   1.0000000   1.0000000   1.0000000   1.0000000   6.0000000   6.0000000   6.0000000   6.0000000

  Atom        21          22          23          24          25          26          27          28          29          30
 IAtWgt=           1           1          12          12          12          12           1           1          12          12
 AtmWgt=   1.0078250   1.0078250  12.0000000  12.0000000  12.0000000  12.0000000   1.0078250   1.0078250  12.0000000  12.0000000
 NucSpn=           1           1           0           0           0           0           1           1           0           0
 AtZEff=   0.0000000   0.0000000   0.0000000   0.0000000   0.0000000   0.0000000   0.0000000   0.0000000   0.0000000   0.0000000
 NQMom=    0.0000000   0.0000000   0.0000000   0.0000000   0.0000000   0.0000000   0.0000000   0.0000000   0.0000000   0.0000000
 NMagM=    2.7928460   2.7928460   0.0000000   0.0000000   0.0000000   0.0000000   2.7928460   2.7928460   0.0000000   0.0000000
 AtZNuc=   1.0000000   1.0000000   6.0000000   6.0000000   6.0000000   6.0000000   1.0000000   1.0000000   6.0000000   6.0000000

  Atom        31          32          33          34          35          36          37          38          39          40
 IAtWgt=          12          12           1           1           1           1          12          12          12          12
 AtmWgt=  12.0000000  12.0000000   1.0078250   1.0078250   1.0078250   1.0078250  12.0000000  12.0000000  12.0000000  12.0000000
 NucSpn=           0           0           1           1           1           1           0           0           0           0
 AtZEff=   0.0000000   0.0000000   0.0000000   0.0000000   0.0000000   0.0000000   0.0000000   0.0000000   0.0000000   0.0000000
 NQMom=    0.0000000   0.0000000   0.0000000   0.0000000   0.0000000   0.0000000   0.0000000   0.0000000   0.0000000   0.0000000
 NMagM=    0.0000000   0.0000000   2.7928460   2.7928460   2.7928460   2.7928460   0.0000000   0.0000000   0.0000000   0.0000000
 AtZNuc=   6.0000000   6.0000000   1.0000000   1.0000000   1.0000000   1.0000000   6.0000000   6.0000000   6.0000000   6.0000000

  Atom        41          42          43          44          45          46          47          48          49          50
 IAtWgt=          12          12          12          12          12          12           1           1           1           1
 AtmWgt=  12.0000000  12.0000000  12.0000000  12.0000000  12.0000000  12.0000000   1.0078250   1.0078250   1.0078250   1.0078250
 NucSpn=           0           0           0           0           0           0           1           1           1           1
 AtZEff=   0.0000000   0.0000000   0.0000000   0.0000000   0.0000000   0.0000000   0.0000000   0.0000000   0.0000000   0.0000000
 NQMom=    0.0000000   0.0000000   0.0000000   0.0000000   0.0000000   0.0000000   0.0000000   0.0000000   0.0000000   0.0000000
 NMagM=    0.0000000   0.0000000   0.0000000   0.0000000   0.0000000   0.0000000   2.7928460   2.7928460   2.7928460   2.7928460
 AtZNuc=   6.0000000   6.0000000   6.0000000   6.0000000   6.0000000   6.0000000   1.0000000   1.0000000   1.0000000   1.0000000

  Atom        51          52          53          54          55          56          57          58          59          60
 IAtWgt=           1           1          12          12          12          12           1           1          12          12
 AtmWgt=   1.0078250   1.0078250  12.0000000  12.0000000  12.0000000  12.0000000   1.0078250   1.0078250  12.0000000  12.0000000
 NucSpn=           1           1           0           0           0           0           1           1           0           0
 AtZEff=   0.0000000   0.0000000   0.0000000   0.0000000   0.0000000   0.0000000   0.0000000   0.0000000   0.0000000   0.0000000
 NQMom=    0.0000000   0.0000000   0.0000000   0.0000000   0.0000000   0.0000000   0.0000000   0.0000000   0.0000000   0.0000000
 NMagM=    2.7928460   2.7928460   0.0000000   0.0000000   0.0000000   0.0000000   2.7928460   2.7928460   0.0000000   0.0000000
 AtZNuc=   1.0000000   1.0000000   6.0000000   6.0000000   6.0000000   6.0000000   1.0000000   1.0000000   6.0000000   6.0000000

  Atom        61          62          63          64          65          66          67          68          69          70
 IAtWgt=          12          12           1           1          12          12          12          12           1           1
 AtmWgt=  12.0000000  12.0000000   1.0078250   1.0078250  12.0000000  12.0000000  12.0000000  12.0000000   1.0078250   1.0078250
 NucSpn=           0           0           1           1           0           0           0           0           1           1
 AtZEff=   0.0000000   0.0000000   0.0000000   0.0000000   0.0000000   0.0000000   0.0000000   0.0000000   0.0000000   0.0000000
 NQMom=    0.0000000   0.0000000   0.0000000   0.0000000   0.0000000   0.0000000   0.0000000   0.0000000   0.0000000   0.0000000
 NMagM=    0.0000000   0.0000000   2.7928460   2.7928460   0.0000000   0.0000000   0.0000000   0.0000000   2.7928460   2.7928460
 AtZNuc=   6.0000000   6.0000000   1.0000000   1.0000000   6.0000000   6.0000000   6.0000000   6.0000000   1.0000000   1.0000000

  Atom        71          72
 IAtWgt=           1           1
 AtmWgt=   1.0078250   1.0078250
 NucSpn=           1           1
 AtZEff=   0.0000000   0.0000000
 NQMom=    0.0000000   0.0000000
 NMagM=    2.7928460   2.7928460
 AtZNuc=   1.0000000   1.0000000
 Leave Link  101 at Wed Sep 27 16:57:24 2023, MaxMem=  3221225472 cpu:               2.6 elap:               0.1
 (Enter /home/center/opt/aarch64/apps/gaussian16/c01/g16/l202.exe)
 Stoichiometry    C44H28
 Framework group  CS[SG(C4H4),X(C40H24)]
 Deg. of freedom   109
 Full point group                 CS      NOp   2
 Largest Abelian subgroup         CS      NOp   2
 Largest concise Abelian subgroup CS      NOp   2
                         Standard orientation:                         
 ---------------------------------------------------------------------
 Center     Atomic      Atomic             Coordinates (Angstroms)
 Number     Number       Type             X           Y           Z
 ---------------------------------------------------------------------
      1          6           0        0.726832   -2.828427    3.671276
      2          6           0       -0.726832   -2.828427    3.671276
      3          6           0        1.408733   -2.828427    4.933593
      4          6           0       -1.408734   -2.828427    4.933593
      5          6           0        0.716047   -2.828427    6.106357
      6          6           0       -0.716047   -2.828427    6.106357
      7          6           0        1.406391   -2.828427    2.463318
      8          6           0        0.727597   -2.828427    1.224029
      9          6           0       -1.406391   -2.828427    2.463317
     10          6           0       -0.727597   -2.828427    1.224029
     11          1           0        2.493762   -2.828427    4.933260
     12          1           0        2.492108   -2.828427    2.463929
     13          1           0       -2.492107   -2.828427    2.463929
     14          1           0       -2.493762   -2.828427    4.933260
     15          1           0       -1.245295   -2.828427    7.052528
     16          1           0        1.245295   -2.828427    7.052528
     17          6           0        1.406886   -2.828427    0.000000
     18          6           0        0.727597   -2.828427   -1.224029
     19          6           0       -1.406886   -2.828427    0.000000
     20          6           0       -0.727597   -2.828427   -1.224029
     21          1           0        2.492509   -2.828427    0.000000
     22          1           0       -2.492507   -2.828427    0.000000
     23          6           0        1.406391   -2.828427   -2.463318
     24          6           0        0.726832   -2.828427   -3.671276
     25          6           0       -1.406391   -2.828427   -2.463317
     26          6           0       -0.726832   -2.828427   -3.671276
     27          1           0        2.492108   -2.828427   -2.463929
     28          1           0       -2.492107   -2.828427   -2.463929
     29          6           0        1.408733   -2.828427   -4.933593
     30          6           0        0.716047   -2.828427   -6.106357
     31          6           0       -1.408734   -2.828427   -4.933593
     32          6           0       -0.716047   -2.828427   -6.106357
     33          1           0        2.493762   -2.828427   -4.933260
     34          1           0        1.245295   -2.828427   -7.052528
     35          1           0       -1.245295   -2.828427   -7.052528
     36          1           0       -2.493762   -2.828427   -4.933260
     37          6           0        0.000000    3.555259    3.671276
     38          6           0        0.000000    2.101595    3.671276
     39          6           0        0.000000    4.237160    4.933593
     40          6           0        0.000000    1.419694    4.933593
     41          6           0        0.000000    3.544474    6.106357
     42          6           0        0.000000    2.112380    6.106357
     43          6           0        0.000000    4.234818    2.463318
     44          6           0        0.000000    3.556024    1.224029
     45          6           0        0.000000    1.422036    2.463317
     46          6           0        0.000000    2.100830    1.224029
     47          1           0        0.000000    5.322189    4.933260
     48          1           0        0.000000    5.320535    2.463929
     49          1           0        0.000000    0.336320    2.463929
     50          1           0        0.000000    0.334665    4.933260
     51          1           0        0.000000    1.583132    7.052528
     52          1           0        0.000000    4.073722    7.052528
     53          6           0        0.000000    4.235313    0.000000
     54          6           0        0.000000    3.556024   -1.224029
     55          6           0        0.000000    1.421541    0.000000
     56          6           0        0.000000    2.100830   -1.224029
     57          1           0        0.000000    5.320936    0.000000
     58          1           0        0.000000    0.335920    0.000000
     59          6           0        0.000000    4.234818   -2.463318
     60          6           0        0.000000    3.555259   -3.671276
     61          6           0        0.000000    1.422036   -2.463317
     62          6           0        0.000000    2.101595   -3.671276
     63          1           0        0.000000    5.320535   -2.463929
     64          1           0        0.000000    0.336320   -2.463929
     65          6           0        0.000000    4.237160   -4.933593
     66          6           0        0.000000    3.544474   -6.106357
     67          6           0        0.000000    1.419694   -4.933593
     68          6           0        0.000000    2.112380   -6.106357
     69          1           0        0.000000    5.322189   -4.933260
     70          1           0        0.000000    4.073722   -7.052528
     71          1           0        0.000000    1.583132   -7.052528
     72          1           0        0.000000    0.334665   -4.933260
 ---------------------------------------------------------------------
 Rotational constants (GHZ):           0.0969333           0.0563744           0.0376742
 Leave Link  202 at Wed Sep 27 16:57:26 2023, MaxMem=  3221225472 cpu:               0.6 elap:               0.0
 (Enter /home/center/opt/aarch64/apps/gaussian16/c01/g16/l122.exe)
 Counterpoise: doing full-system calculation.
 Leave Link  122 at Wed Sep 27 16:57:28 2023, MaxMem=  3221225472 cpu:               0.2 elap:               0.0
 (Enter /home/center/opt/aarch64/apps/gaussian16/c01/g16/l301.exe)
 Standard basis: 6-311G(d,p) (5D, 7F)
 Ernie: Thresh=  0.10000D-02 Tol=  0.10000D-05 Strict=F.
 There are   528 symmetry adapted cartesian basis functions of A'  symmetry.
 There are   476 symmetry adapted cartesian basis functions of A"  symmetry.
 There are   504 symmetry adapted basis functions of A'  symmetry.
 There are   456 symmetry adapted basis functions of A"  symmetry.
   960 basis functions,  1632 primitive gaussians,  1004 cartesian basis functions
   146 alpha electrons      146 beta electrons
       nuclear repulsion energy      4557.5901587755 Hartrees.
 IExCor=  402 DFT=T Ex+Corr=B3LYP ExCW=0 ScaHFX=  0.200000
 ScaDFX=  0.800000  0.720000  1.000000  0.810000 ScalE2=  1.000000  1.000000
 IRadAn=      5 IRanWt=     -1 IRanGd=            0 ICorTp=0 IEmpDi=131
 NAtoms=   72 NActive=   72 NUniq=   40 SFac= 3.24D+00 NAtFMM=   60 NAOKFM=T Big=F
 Integral buffers will be    131072 words long.
 Raffenetti 2 integral format.
 Two-electron integral symmetry is turned on.
 R6Disp:  Grimme-D3 Dispersion energy=       -0.0747948280 Hartrees.
 Nuclear repulsion after empirical dispersion term =     4557.5153639475 Hartrees.
 Leave Link  301 at Wed Sep 27 16:57:31 2023, MaxMem=  3221225472 cpu:               2.0 elap:               0.1
 (Enter /home/center/opt/aarch64/apps/gaussian16/c01/g16/l302.exe)
 NPDir=0 NMtPBC=     1 NCelOv=     1 NCel=       1 NClECP=     1 NCelD=      1
         NCelK=      1 NCelE2=     1 NClLst=     1 CellRange=     0.0.
 One-electron integrals computed using PRISM.
 One-electron integral symmetry used in STVInt
 NBasis=   960 RedAO= T EigKep=  3.91D-05  NBF=   504   456
 NBsUse=   960 1.00D-06 EigRej= -1.00D+00 NBFU=   504   456
 Precomputing XC quadrature grid using
 IXCGrd= 4 IRadAn=           5 IRanWt=          -1 IRanGd=           0 AccXCQ= 0.00D+00.
 Generated NRdTot=       0 NPtTot=           0 NUsed=           0 NTot=          32
 NSgBfM=   991   987   987   987   991 MxSgAt=    72 MxSgA2=    72.
 Leave Link  302 at Wed Sep 27 16:57:35 2023, MaxMem=  3221225472 cpu:              63.8 elap:               1.9
 (Enter /home/center/opt/aarch64/apps/gaussian16/c01/g16/l303.exe)
 DipDrv:  MaxL=1.
 Leave Link  303 at Wed Sep 27 16:57:38 2023, MaxMem=  3221225472 cpu:              13.7 elap:               0.4
 (Enter /home/center/opt/aarch64/apps/gaussian16/c01/g16/l401.exe)
 ExpMin= 1.03D-01 ExpMax= 4.56D+03 ExpMxC= 6.82D+02 IAcc=3 IRadAn=         5 AccDes= 0.00D+00
 Harris functional with IExCor=  402 and IRadAn=       5 diagonalized for initial guess.
 HarFok:  IExCor=  402 AccDes= 0.00D+00 IRadAn=         5 IDoV= 1 UseB2=F ITyADJ=14
 ICtDFT=  3500011 ScaDFX=  1.000000  1.000000  1.000000  1.000000
 FoFCou: FMM=F IPFlag=           0 FMFlag=      100000 FMFlg1=        2000
         NFxFlg=           0 DoJE=T BraDBF=F KetDBF=T FulRan=T
         wScrn=  0.000000 ICntrl=       500 IOpCl=  0 I1Cent=   200000004 NGrid=           0
         NMat0=    1 NMatS0=      1 NMatT0=    0 NMatD0=    1 NMtDS0=    0 NMtDT0=    0
 Petite list used in FoFCou.
 Harris En= -1694.13775799300    
 JPrj=0 DoOrth=F DoCkMO=F.
 Initial guess orbital symmetries:
       Occupied  (A") (A') (A") (A') (A') (A") (A') (A") (A") (A')
                 (A") (A') (A") (A') (A") (A') (A') (A") (A") (A')
                 (A') (A") (A") (A') (A') (A') (A') (A') (A") (A')
                 (A") (A') (A") (A') (A") (A') (A") (A') (A") (A')
                 (A') (A") (A') (A") (A') (A') (A") (A") (A') (A')
                 (A") (A") (A') (A') (A') (A') (A") (A") (A') (A')
                 (A") (A") (A") (A") (A') (A') (A') (A') (A") (A")
                 (A") (A") (A') (A') (A") (A") (A') (A') (A') (A')
                 (A') (A') (A") (A") (A") (A") (A") (A") (A') (A')
                 (A') (A') (A") (A") (A') (A') (A') (A') (A") (A")
                 (A') (A') (A") (A") (A") (A") (A') (A') (A') (A')
                 (A") (A") (A') (A') (A") (A") (A') (A') (A") (A")
                 (A") (A") (A') (A') (A') (A') (A") (A") (A') (A')
                 (A") (A") (A') (A') (A") (A") (A') (A') (A') (A')
                 (A") (A") (A") (A") (A') (A')
       Virtual   (A') (A') (A") (A") (A") (A") (A') (A') (A') (A')
                 (A") (A") (A') (A') (A") (A") (A') (A") (A') (A')
                 (A') (A') (A') (A") (A') (A") (A") (A') (A") (A")
                 (A') (A') (A") (A') (A") (A') (A") (A") (A") (A')
                 (A") (A') (A') (A') (A') (A") (A") (A') (A') (A')
                 (A') (A') (A") (A") (A') (A') (A") (A') (A") (A')
                 (A") (A") (A") (A") (A') (A') (A") (A') (A") (A")
                 (A') (A") (A') (A') (A") (A') (A") (A") (A') (A")
                 (A') (A') (A') (A') (A') (A") (A') (A") (A") (A')
                 (A') (A") (A") (A") (A') (A') (A") (A") (A") (A')
                 (A') (A') (A") (A") (A') (A") (A") (A') (A') (A')
                 (A') (A') (A') (A') (A") (A") (A") (A') (A") (A')
                 (A') (A") (A') (A") (A') (A") (A') (A") (A") (A')
                 (A") (A') (A") (A") (A") (A") (A') (A') (A') (A")
                 (A") (A') (A') (A') (A") (A') (A') (A') (A") (A')
                 (A') (A') (A") (A") (A') (A") (A") (A') (A') (A')
                 (A") (A") (A') (A") (A") (A") (A') (A') (A") (A')
                 (A') (A") (A") (A') (A') (A') (A") (A') (A") (A")
                 (A') (A") (A") (A') (A') (A') (A") (A') (A') (A')
                 (A") (A") (A") (A') (A') (A") (A') (A') (A") (A")
                 (A") (A') (A') (A") (A') (A") (A') (A') (A") (A')
                 (A") (A') (A") (A') (A") (A') (A") (A') (A") (A")
                 (A') (A") (A") (A") (A') (A") (A') (A') (A') (A")
                 (A') (A') (A') (A') (A") (A") (A') (A") (A") (A')
                 (A") (A") (A') (A') (A') (A') (A") (A") (A') (A")
                 (A') (A') (A") (A") (A") (A') (A') (A") (A") (A')
                 (A') (A') (A') (A") (A") (A") (A") (A') (A') (A")
                 (A") (A') (A") (A") (A') (A') (A") (A') (A") (A')
                 (A") (A") (A') (A') (A') (A') (A') (A") (A") (A")
                 (A") (A') (A') (A') (A') (A") (A") (A") (A') (A")
                 (A") (A") (A') (A') (A') (A") (A') (A") (A') (A')
                 (A") (A") (A') (A") (A") (A') (A") (A') (A') (A")
                 (A') (A') (A") (A') (A') (A") (A') (A') (A") (A")
                 (A") (A") (A') (A") (A') (A') (A") (A") (A') (A')
                 (A') (A") (A') (A") (A") (A') (A") (A") (A') (A')
                 (A') (A') (A") (A') (A") (A') (A") (A') (A") (A')
                 (A') (A') (A') (A') (A") (A") (A") (A") (A") (A")
                 (A") (A') (A") (A") (A') (A") (A') (A') (A') (A')
                 (A") (A") (A') (A') (A') (A') (A') (A") (A') (A")
                 (A") (A') (A') (A') (A") (A') (A") (A") (A") (A')
                 (A") (A') (A") (A') (A") (A') (A') (A") (A") (A')
                 (A") (A') (A') (A') (A') (A") (A') (A") (A') (A")
                 (A') (A') (A') (A") (A") (A') (A") (A') (A") (A')
                 (A") (A") (A") (A') (A") (A') (A') (A") (A") (A")
                 (A") (A") (A') (A') (A') (A') (A") (A") (A') (A")
                 (A') (A') (A') (A') (A") (A") (A') (A") (A") (A')
                 (A") (A") (A') (A') (A") (A') (A') (A") (A") (A")
                 (A") (A') (A') (A') (A") (A') (A") (A") (A') (A')
                 (A") (A') (A') (A') (A") (A') (A") (A") (A") (A')
                 (A") (A') (A") (A") (A") (A") (A") (A') (A") (A')
                 (A') (A") (A') (A') (A") (A') (A') (A') (A') (A")
                 (A") (A') (A') (A') (A") (A") (A") (A") (A') (A')
                 (A") (A") (A') (A') (A") (A") (A') (A') (A") (A')
                 (A') (A") (A') (A') (A") (A") (A') (A") (A") (A')
                 (A") (A") (A') (A') (A') (A') (A") (A") (A") (A")
                 (A") (A') (A') (A") (A") (A') (A') (A") (A') (A')
                 (A') (A") (A') (A") (A") (A') (A') (A') (A") (A")
                 (A") (A') (A") (A') (A") (A') (A") (A') (A') (A")
                 (A') (A") (A') (A") (A') (A') (A') (A') (A") (A')
                 (A") (A') (A") (A') (A') (A') (A") (A") (A') (A")
                 (A') (A") (A') (A") (A") (A') (A') (A") (A") (A')
                 (A') (A") (A') (A") (A') (A") (A') (A") (A') (A")
                 (A') (A") (A') (A") (A") (A') (A") (A') (A") (A')
                 (A") (A') (A') (A') (A') (A") (A') (A') (A") (A")
                 (A') (A') (A") (A") (A') (A") (A") (A") (A") (A')
                 (A') (A") (A') (A') (A') (A') (A') (A") (A") (A')
                 (A') (A') (A") (A") (A") (A") (A') (A') (A') (A")
                 (A') (A") (A") (A') (A') (A") (A") (A") (A') (A')
                 (A") (A') (A') (A") (A') (A") (A') (A") (A") (A")
                 (A') (A') (A") (A') (A') (A') (A") (A") (A") (A')
                 (A') (A') (A") (A") (A') (A') (A") (A") (A') (A")
                 (A") (A") (A") (A') (A') (A') (A') (A') (A") (A")
                 (A') (A') (A") (A") (A') (A') (A") (A') (A') (A")
                 (A') (A") (A") (A') (A") (A') (A") (A') (A') (A')
                 (A") (A") (A') (A') (A") (A") (A') (A') (A') (A')
                 (A") (A') (A") (A') (A") (A") (A') (A') (A") (A")
                 (A") (A") (A') (A') (A") (A") (A') (A") (A') (A")
                 (A') (A') (A") (A") (A') (A') (A') (A') (A") (A")
                 (A") (A") (A') (A') (A") (A") (A') (A') (A') (A')
                 (A") (A") (A") (A") (A') (A') (A') (A') (A") (A")
                 (A') (A') (A") (A") (A') (A') (A") (A") (A') (A')
                 (A') (A") (A') (A")
 The electronic state of the initial guess is 1-A'.
 Leave Link  401 at Wed Sep 27 16:57:42 2023, MaxMem=  3221225472 cpu:             103.5 elap:               2.6
 (Enter /home/center/opt/aarch64/apps/gaussian16/c01/g16/l502.exe)
 Integral symmetry usage will be decided dynamically.
 Closed shell SCF:
 Using DIIS extrapolation, IDIIS=  1040.
 NGot=  3221225472 LenX=  3219153746 LenY=  3218144726
 Requested convergence on RMS density matrix=1.00D-08 within 128 cycles.
 Requested convergence on MAX density matrix=1.00D-06.
 Requested convergence on             energy=1.00D-06.
 No special actions if energy rises.
 Fock matrices will be formed incrementally for  20 cycles.
 Integral accuracy reduced to 1.0D-05 until final iterations.

 Cycle   1  Pass 0  IDiag  1:
 FoFJK:  IHMeth= 1 ICntrl=       0 DoSepK=F KAlg= 0 I1Cent=           0 FoldK=F
 IRaf= 540000000 NMat=       1 IRICut=       1 DoRegI=T DoRafI=F ISym2E= 1 IDoP0=0 IntGTp=1.
 FoFCou: FMM=F IPFlag=           0 FMFlag=      100000 FMFlg1=        2000
         NFxFlg=           0 DoJE=F BraDBF=F KetDBF=F FulRan=T
         wScrn=  0.000000 ICntrl=         0 IOpCl=  0 I1Cent=           0 NGrid=           0
         NMat0=    1 NMatS0=      1 NMatT0=    0 NMatD0=    1 NMtDS0=    0 NMtDT0=    0
 Petite list used in FoFCou.
 E= -1693.16466959674    
 DIIS: error= 4.76D-02 at cycle   1 NSaved=   1.
 NSaved= 1 IEnMin= 1 EnMin= -1693.16466959674     IErMin= 1 ErrMin= 4.76D-02
 ErrMax= 4.76D-02  0.00D+00 EMaxC= 1.00D-01 BMatC= 9.02D-01 BMatP= 9.02D-01
 IDIUse=3 WtCom= 5.24D-01 WtEn= 4.76D-01
 Coeff-Com:  0.100D+01
 Coeff-En:   0.100D+01
 Coeff:      0.100D+01
 Gap=     0.069 Goal=   None    Shift=    0.000
 GapD=    0.069 DampG=0.500 DampE=0.500 DampFc=0.2500 IDamp=-1.
 Damping current iteration by 2.50D-01
 RMSDP=1.71D-03 MaxDP=8.40D-02              OVMax= 1.56D-01

 Cycle   2  Pass 0  IDiag  1:
 RMSU=  4.13D-04    CP:  9.82D-01
 E= -1693.47556774235     Delta-E=       -0.310898145610 Rises=F Damp=T
 DIIS: error= 2.78D-02 at cycle   2 NSaved=   2.
 NSaved= 2 IEnMin= 2 EnMin= -1693.47556774235     IErMin= 2 ErrMin= 2.78D-02
 ErrMax= 2.78D-02  0.00D+00 EMaxC= 1.00D-01 BMatC= 2.99D-01 BMatP= 9.02D-01
 IDIUse=3 WtCom= 7.22D-01 WtEn= 2.78D-01
 Coeff-Com: -0.121D+01 0.221D+01
 Coeff-En:   0.000D+00 0.100D+01
 Coeff:     -0.873D+00 0.187D+01
 Gap=     0.067 Goal=   None    Shift=    0.000
 RMSDP=6.87D-04 MaxDP=3.36D-02 DE=-3.11D-01 OVMax= 8.58D-02

 Cycle   3  Pass 0  IDiag  1:
 RMSU=  4.20D-04    CP:  9.56D-01  2.26D+00
 E= -1694.04445207957     Delta-E=       -0.568884337219 Rises=F Damp=F
 DIIS: error= 4.79D-03 at cycle   3 NSaved=   3.
 NSaved= 3 IEnMin= 3 EnMin= -1694.04445207957     IErMin= 3 ErrMin= 4.79D-03
 ErrMax= 4.79D-03  0.00D+00 EMaxC= 1.00D-01 BMatC= 1.13D-02 BMatP= 2.99D-01
 IDIUse=3 WtCom= 9.52D-01 WtEn= 4.79D-02
 Coeff-Com: -0.211D+00 0.457D+00 0.753D+00
 Coeff-En:   0.000D+00 0.000D+00 0.100D+01
 Coeff:     -0.201D+00 0.435D+00 0.765D+00
 Gap=     0.070 Goal=   None    Shift=    0.000
 RMSDP=2.24D-04 MaxDP=1.34D-02 DE=-5.69D-01 OVMax= 9.59D-02

 Cycle   4  Pass 0  IDiag  1:
 RMSU=  1.88D-04    CP:  9.58D-01  2.13D+00  7.41D-01
 E= -1694.04075542343     Delta-E=        0.003696656140 Rises=F Damp=F
 DIIS: error= 7.07D-03 at cycle   4 NSaved=   4.
 NSaved= 4 IEnMin= 3 EnMin= -1694.04445207957     IErMin= 3 ErrMin= 4.79D-03
 ErrMax= 7.07D-03  0.00D+00 EMaxC= 1.00D-01 BMatC= 1.28D-02 BMatP= 1.13D-02
 IDIUse=3 WtCom= 1.06D-01 WtEn= 8.94D-01
 Coeff-Com: -0.175D-01 0.788D-01 0.533D+00 0.406D+00
 Coeff-En:   0.000D+00 0.000D+00 0.559D+00 0.441D+00
 Coeff:     -0.186D-02 0.838D-02 0.556D+00 0.438D+00
 Gap=     0.067 Goal=   None    Shift=    0.000
 RMSDP=1.43D-04 MaxDP=9.81D-03 DE= 3.70D-03 OVMax= 8.59D-02

 Cycle   5  Pass 0  IDiag  1:
 RMSU=  7.53D-05    CP:  9.58D-01  2.12D+00  8.14D-01  3.74D-01
 E= -1694.05471407341     Delta-E=       -0.013958649981 Rises=F Damp=F
 DIIS: error= 2.44D-03 at cycle   5 NSaved=   5.
 NSaved= 5 IEnMin= 5 EnMin= -1694.05471407341     IErMin= 5 ErrMin= 2.44D-03
 ErrMax= 2.44D-03  0.00D+00 EMaxC= 1.00D-01 BMatC= 1.27D-03 BMatP= 1.13D-02
 IDIUse=3 WtCom= 9.76D-01 WtEn= 2.44D-02
 Coeff-Com: -0.169D-01 0.351D-01 0.237D+00 0.257D+00 0.488D+00
 Coeff-En:   0.000D+00 0.000D+00 0.000D+00 0.746D-01 0.925D+00
 Coeff:     -0.165D-01 0.343D-01 0.232D+00 0.252D+00 0.498D+00
 Gap=     0.068 Goal=   None    Shift=    0.000
 RMSDP=4.94D-05 MaxDP=3.51D-03 DE=-1.40D-02 OVMax= 3.52D-02

 Cycle   6  Pass 0  IDiag  1:
 RMSU=  2.50D-05    CP:  9.57D-01  2.15D+00  8.15D-01  4.95D-01  5.57D-01
 E= -1694.05591854759     Delta-E=       -0.001204474174 Rises=F Damp=F
 DIIS: error= 1.24D-03 at cycle   6 NSaved=   6.
 NSaved= 6 IEnMin= 6 EnMin= -1694.05591854759     IErMin= 6 ErrMin= 1.24D-03
 ErrMax= 1.24D-03  0.00D+00 EMaxC= 1.00D-01 BMatC= 2.58D-04 BMatP= 1.27D-03
 IDIUse=3 WtCom= 9.88D-01 WtEn= 1.24D-02
 Coeff-Com: -0.944D-02 0.137D-01 0.978D-01 0.130D+00 0.366D+00 0.402D+00
 Coeff-En:   0.000D+00 0.000D+00 0.000D+00 0.000D+00 0.168D+00 0.832D+00
 Coeff:     -0.933D-02 0.135D-01 0.966D-01 0.128D+00 0.364D+00 0.408D+00
 Gap=     0.067 Goal=   None    Shift=    0.000
 RMSDP=2.10D-05 MaxDP=1.69D-03 DE=-1.20D-03 OVMax= 1.44D-02

 Cycle   7  Pass 0  IDiag  1:
 RMSU=  8.21D-06    CP:  9.57D-01  2.15D+00  8.20D-01  4.80D-01  6.43D-01
                    CP:  2.85D-01
 E= -1694.05621056527     Delta-E=       -0.000292017677 Rises=F Damp=F
 DIIS: error= 3.58D-04 at cycle   7 NSaved=   7.
 NSaved= 7 IEnMin= 7 EnMin= -1694.05621056527     IErMin= 7 ErrMin= 3.58D-04
 ErrMax= 3.58D-04  0.00D+00 EMaxC= 1.00D-01 BMatC= 2.12D-05 BMatP= 2.58D-04
 IDIUse=3 WtCom= 9.96D-01 WtEn= 3.58D-03
 Coeff-Com: -0.445D-02 0.564D-02 0.513D-01 0.705D-01 0.215D+00 0.284D+00
 Coeff-Com:  0.378D+00
 Coeff-En:   0.000D+00 0.000D+00 0.000D+00 0.000D+00 0.000D+00 0.457D-01
 Coeff-En:   0.954D+00
 Coeff:     -0.443D-02 0.562D-02 0.511D-01 0.702D-01 0.214D+00 0.283D+00
 Coeff:      0.380D+00
 Gap=     0.068 Goal=   None    Shift=    0.000
 RMSDP=5.54D-06 MaxDP=3.48D-04 DE=-2.92D-04 OVMax= 2.76D-03

 Initial convergence to 1.0D-05 achieved.  Increase integral accuracy.
 Cycle   8  Pass 1  IDiag  1:
 E= -1694.05583689657     Delta-E=        0.000373668693 Rises=F Damp=F
 DIIS: error= 7.45D-04 at cycle   1 NSaved=   1.
 NSaved= 1 IEnMin= 1 EnMin= -1694.05583689657     IErMin= 1 ErrMin= 7.45D-04
 ErrMax= 7.45D-04  0.00D+00 EMaxC= 1.00D-01 BMatC= 3.79D-05 BMatP= 3.79D-05
 IDIUse=3 WtCom= 9.93D-01 WtEn= 7.45D-03
 Coeff-Com:  0.100D+01
 Coeff-En:   0.100D+01
 Coeff:      0.100D+01
 Gap=     0.068 Goal=   None    Shift=    0.000
 RMSDP=5.54D-06 MaxDP=3.48D-04 DE= 3.74D-04 OVMax= 1.56D-03

 Cycle   9  Pass 1  IDiag  1:
 RMSU=  2.60D-04    CP:  1.00D+00
 E= -1694.05587259926     Delta-E=       -0.000035702692 Rises=F Damp=F
 DIIS: error= 7.96D-05 at cycle   2 NSaved=   2.
 NSaved= 2 IEnMin= 2 EnMin= -1694.05587259926     IErMin= 2 ErrMin= 7.96D-05
 ErrMax= 7.96D-05  0.00D+00 EMaxC= 1.00D-01 BMatC= 1.90D-06 BMatP= 3.79D-05
 IDIUse=1 WtCom= 1.00D+00 WtEn= 0.00D+00
 Coeff-Com:  0.617D-01 0.938D+00
 Coeff:      0.617D-01 0.938D+00
 Gap=     0.068 Goal=   None    Shift=    0.000
 RMSDP=5.10D-06 MaxDP=3.22D-04 DE=-3.57D-05 OVMax= 2.46D-03

 Cycle  10  Pass 1  IDiag  1:
 RMSU=  4.35D-06    CP:  1.00D+00  1.01D+00
 E= -1694.05586481781     Delta-E=        0.000007781452 Rises=F Damp=F
 DIIS: error= 1.89D-04 at cycle   3 NSaved=   3.
 NSaved= 3 IEnMin= 2 EnMin= -1694.05587259926     IErMin= 2 ErrMin= 7.96D-05
 ErrMax= 1.89D-04  0.00D+00 EMaxC= 1.00D-01 BMatC= 8.22D-06 BMatP= 1.90D-06
 IDIUse=3 WtCom= 4.21D-01 WtEn= 5.79D-01
 Coeff-Com: -0.218D-02 0.679D+00 0.323D+00
 Coeff-En:   0.000D+00 0.764D+00 0.236D+00
 Coeff:     -0.917D-03 0.728D+00 0.272D+00
 Gap=     0.068 Goal=   None    Shift=    0.000
 RMSDP=2.80D-06 MaxDP=2.12D-04 DE= 7.78D-06 OVMax= 1.83D-03

 Cycle  11  Pass 1  IDiag  1:
 RMSU=  8.08D-07    CP:  1.00D+00  1.01D+00  3.84D-01
 E= -1694.05587444336     Delta-E=       -0.000009625553 Rises=F Damp=F
 DIIS: error= 3.11D-05 at cycle   4 NSaved=   4.
 NSaved= 4 IEnMin= 4 EnMin= -1694.05587444336     IErMin= 4 ErrMin= 3.11D-05
 ErrMax= 3.11D-05  0.00D+00 EMaxC= 1.00D-01 BMatC= 2.78D-07 BMatP= 1.90D-06
 IDIUse=1 WtCom= 1.00D+00 WtEn= 0.00D+00
 Coeff-Com: -0.370D-02 0.447D+00 0.165D+00 0.391D+00
 Coeff:     -0.370D-02 0.447D+00 0.165D+00 0.391D+00
 Gap=     0.068 Goal=   None    Shift=    0.000
 RMSDP=5.19D-07 MaxDP=2.67D-05 DE=-9.63D-06 OVMax= 1.25D-04

 Cycle  12  Pass 1  IDiag  1:
 RMSU=  3.01D-07    CP:  1.00D+00  1.01D+00  3.18D-01  6.20D-01
 E= -1694.05587471482     Delta-E=       -0.000000271458 Rises=F Damp=F
 DIIS: error= 5.33D-06 at cycle   5 NSaved=   5.
 NSaved= 5 IEnMin= 5 EnMin= -1694.05587471482     IErMin= 5 ErrMin= 5.33D-06
 ErrMax= 5.33D-06  0.00D+00 EMaxC= 1.00D-01 BMatC= 3.54D-09 BMatP= 2.78D-07
 IDIUse=1 WtCom= 1.00D+00 WtEn= 0.00D+00
 Coeff-Com: -0.215D-02 0.250D+00 0.921D-01 0.230D+00 0.430D+00
 Coeff:     -0.215D-02 0.250D+00 0.921D-01 0.230D+00 0.430D+00
 Gap=     0.068 Goal=   None    Shift=    0.000
 RMSDP=9.00D-08 MaxDP=4.29D-06 DE=-2.71D-07 OVMax= 3.85D-05

 Cycle  13  Pass 1  IDiag  1:
 RMSU=  8.13D-08    CP:  1.00D+00  1.01D+00  3.21D-01  6.28D-01  8.86D-01
 E= -1694.05587471885     Delta-E=       -0.000000004029 Rises=F Damp=F
 DIIS: error= 1.97D-06 at cycle   6 NSaved=   6.
 NSaved= 6 IEnMin= 6 EnMin= -1694.05587471885     IErMin= 6 ErrMin= 1.97D-06
 ErrMax= 1.97D-06  0.00D+00 EMaxC= 1.00D-01 BMatC= 6.19D-10 BMatP= 3.54D-09
 IDIUse=1 WtCom= 1.00D+00 WtEn= 0.00D+00
 Coeff-Com: -0.851D-03 0.953D-01 0.356D-01 0.898D-01 0.291D+00 0.489D+00
 Coeff:     -0.851D-03 0.953D-01 0.356D-01 0.898D-01 0.291D+00 0.489D+00
 Gap=     0.068 Goal=   None    Shift=    0.000
 RMSDP=2.75D-08 MaxDP=1.78D-06 DE=-4.03D-09 OVMax= 1.47D-05

 Cycle  14  Pass 1  IDiag  1:
 RMSU=  1.65D-08    CP:  1.00D+00  1.01D+00  3.23D-01  6.18D-01  9.21D-01
                    CP:  8.08D-01
 E= -1694.05587471956     Delta-E=       -0.000000000710 Rises=F Damp=F
 DIIS: error= 1.54D-07 at cycle   7 NSaved=   7.
 NSaved= 7 IEnMin= 7 EnMin= -1694.05587471956     IErMin= 7 ErrMin= 1.54D-07
 ErrMax= 1.54D-07  0.00D+00 EMaxC= 1.00D-01 BMatC= 1.04D-11 BMatP= 6.19D-10
 IDIUse=1 WtCom= 1.00D+00 WtEn= 0.00D+00
 Coeff-Com: -0.114D-03 0.119D-01 0.412D-02 0.130D-01 0.590D-01 0.155D+00
 Coeff-Com:  0.757D+00
 Coeff:     -0.114D-03 0.119D-01 0.412D-02 0.130D-01 0.590D-01 0.155D+00
 Coeff:      0.757D+00
 Gap=     0.068 Goal=   None    Shift=    0.000
 RMSDP=5.77D-09 MaxDP=3.57D-07 DE=-7.10D-10 OVMax= 1.21D-06

 SCF Done:  E(RB3LYP) =  -1694.05587472     A.U. after   14 cycles
            NFock= 14  Conv=0.58D-08     -V/T= 2.0044
 KE= 1.686672672151D+03 PE=-1.304546899113D+04 EE= 5.107225080311D+03
 Leave Link  502 at Wed Sep 27 16:59:16 2023, MaxMem=  3221225472 cpu:            3320.6 elap:              91.6
 (Enter /home/center/opt/aarch64/apps/gaussian16/c01/g16/l601.exe)
 Copying SCF densities to generalized density rwf, IOpCl= 0 IROHF=0.

 **********************************************************************

            Population analysis using the SCF Density.

 **********************************************************************

 Orbital symmetries:
       Occupied  (A") (A') (A') (A") (A") (A') (A') (A") (A') (A')
                 (A') (A") (A") (A') (A") (A') (A') (A") (A') (A")
                 (A") (A') (A") (A') (A") (A') (A') (A") (A") (A')
                 (A") (A') (A') (A") (A') (A') (A") (A') (A") (A')
                 (A") (A') (A") (A') (A') (A') (A") (A") (A') (A')
                 (A") (A") (A') (A') (A') (A") (A') (A") (A') (A')
                 (A") (A") (A") (A") (A') (A') (A') (A') (A") (A")
                 (A") (A") (A') (A") (A') (A') (A") (A') (A') (A')
                 (A') (A") (A") (A') (A") (A") (A') (A") (A') (A")
                 (A') (A') (A') (A") (A") (A') (A") (A") (A') (A')
                 (A') (A") (A') (A') (A') (A') (A") (A") (A') (A")
                 (A') (A') (A") (A") (A") (A") (A") (A") (A') (A')
                 (A') (A') (A') (A') (A") (A") (A') (A") (A") (A")
                 (A") (A') (A') (A') (A") (A') (A") (A') (A') (A')
                 (A") (A") (A") (A") (A') (A')
       Virtual   (A') (A') (A") (A") (A") (A") (A') (A') (A') (A")
                 (A') (A') (A") (A') (A') (A") (A') (A') (A") (A")
                 (A') (A') (A") (A") (A") (A') (A') (A') (A") (A")
                 (A') (A") (A') (A") (A') (A") (A") (A') (A") (A')
                 (A') (A") (A') (A') (A") (A') (A") (A') (A") (A')
                 (A") (A') (A') (A') (A') (A') (A') (A") (A') (A")
                 (A") (A") (A") (A") (A') (A') (A") (A") (A") (A')
                 (A') (A') (A") (A") (A') (A') (A") (A') (A") (A')
                 (A") (A') (A') (A') (A') (A') (A") (A') (A") (A")
                 (A") (A") (A') (A') (A') (A") (A') (A") (A') (A')
                 (A") (A") (A") (A') (A") (A') (A") (A') (A") (A")
                 (A') (A') (A") (A') (A") (A") (A') (A') (A') (A')
                 (A") (A') (A") (A") (A') (A') (A') (A') (A') (A")
                 (A') (A") (A") (A') (A") (A') (A') (A") (A") (A')
                 (A') (A") (A') (A") (A') (A') (A') (A") (A") (A")
                 (A') (A') (A") (A") (A") (A') (A') (A") (A') (A")
                 (A") (A') (A') (A') (A") (A") (A') (A") (A") (A')
                 (A") (A') (A') (A") (A') (A') (A') (A') (A") (A")
                 (A') (A") (A') (A") (A") (A') (A') (A") (A") (A')
                 (A') (A") (A") (A") (A') (A') (A") (A') (A") (A')
                 (A') (A") (A') (A") (A') (A') (A") (A') (A") (A')
                 (A') (A") (A") (A') (A") (A') (A") (A") (A') (A')
                 (A") (A") (A') (A") (A") (A') (A') (A") (A') (A')
                 (A') (A") (A") (A') (A") (A') (A") (A') (A") (A')
                 (A") (A') (A') (A") (A') (A') (A") (A") (A") (A')
                 (A') (A") (A") (A') (A') (A") (A') (A") (A") (A')
                 (A") (A') (A') (A') (A") (A') (A") (A") (A') (A')
                 (A") (A") (A') (A") (A") (A') (A') (A") (A") (A')
                 (A") (A') (A') (A") (A') (A") (A') (A') (A") (A")
                 (A') (A') (A') (A") (A") (A") (A') (A') (A") (A')
                 (A") (A") (A") (A") (A') (A") (A') (A') (A') (A')
                 (A') (A") (A') (A') (A") (A") (A") (A') (A") (A")
                 (A') (A") (A') (A') (A') (A") (A') (A") (A') (A")
                 (A") (A") (A') (A") (A') (A') (A") (A") (A') (A')
                 (A") (A') (A') (A') (A") (A") (A') (A') (A") (A")
                 (A') (A") (A') (A") (A') (A') (A') (A') (A') (A")
                 (A') (A") (A') (A") (A') (A") (A") (A") (A") (A")
                 (A') (A") (A') (A") (A') (A") (A") (A') (A") (A')
                 (A') (A') (A") (A") (A') (A') (A') (A') (A") (A')
                 (A') (A') (A") (A") (A') (A") (A') (A") (A") (A')
                 (A') (A") (A") (A') (A") (A') (A') (A") (A') (A")
                 (A') (A") (A') (A") (A') (A') (A') (A") (A') (A')
                 (A") (A") (A') (A') (A') (A") (A") (A") (A') (A')
                 (A") (A") (A") (A') (A') (A') (A") (A") (A") (A")
                 (A') (A') (A') (A") (A") (A') (A") (A") (A') (A')
                 (A") (A') (A") (A') (A") (A') (A") (A') (A") (A')
                 (A") (A') (A") (A') (A") (A') (A") (A') (A') (A")
                 (A') (A') (A") (A') (A") (A") (A") (A") (A') (A')
                 (A") (A') (A") (A') (A') (A') (A") (A") (A') (A")
                 (A") (A") (A') (A") (A") (A") (A") (A") (A') (A')
                 (A") (A') (A') (A') (A') (A") (A') (A') (A") (A")
                 (A') (A') (A') (A") (A') (A") (A') (A") (A') (A")
                 (A") (A") (A") (A') (A') (A') (A") (A') (A') (A")
                 (A") (A") (A') (A') (A") (A") (A') (A") (A') (A')
                 (A") (A") (A') (A') (A') (A") (A") (A') (A") (A")
                 (A") (A') (A") (A') (A") (A') (A') (A") (A') (A')
                 (A") (A") (A') (A') (A") (A') (A") (A') (A") (A')
                 (A") (A') (A') (A') (A") (A') (A") (A') (A') (A")
                 (A') (A') (A") (A") (A') (A") (A') (A") (A') (A")
                 (A') (A") (A") (A") (A") (A') (A') (A") (A") (A')
                 (A') (A') (A') (A") (A') (A') (A') (A") (A') (A")
                 (A") (A') (A') (A") (A') (A") (A') (A') (A") (A')
                 (A") (A') (A') (A") (A") (A") (A') (A') (A') (A")
                 (A") (A") (A") (A') (A') (A") (A') (A') (A') (A')
                 (A") (A') (A") (A') (A") (A") (A") (A") (A') (A')
                 (A") (A") (A') (A') (A') (A') (A') (A") (A') (A")
                 (A") (A') (A") (A') (A") (A") (A') (A') (A") (A')
                 (A') (A") (A") (A') (A") (A') (A") (A") (A') (A')
                 (A') (A') (A") (A") (A') (A") (A') (A") (A") (A")
                 (A') (A') (A") (A') (A') (A') (A") (A") (A") (A')
                 (A') (A') (A") (A") (A') (A") (A') (A") (A') (A")
                 (A") (A") (A') (A") (A') (A') (A') (A") (A') (A")
                 (A') (A") (A') (A') (A") (A') (A') (A") (A') (A")
                 (A") (A') (A") (A') (A") (A') (A') (A") (A') (A")
                 (A') (A") (A') (A") (A') (A') (A") (A') (A') (A")
                 (A') (A') (A") (A') (A") (A") (A') (A') (A") (A")
                 (A") (A') (A") (A") (A') (A") (A') (A") (A') (A")
                 (A') (A') (A") (A") (A') (A') (A') (A') (A") (A")
                 (A") (A") (A') (A') (A") (A') (A") (A') (A') (A')
                 (A") (A") (A") (A") (A') (A') (A') (A") (A') (A")
                 (A') (A') (A") (A') (A") (A") (A') (A') (A") (A')
                 (A') (A") (A') (A")
 The electronic state is 1-A'.
 Alpha  occ. eigenvalues --  -10.19523 -10.19523 -10.19488 -10.19486 -10.19418
 Alpha  occ. eigenvalues --  -10.19418 -10.19382 -10.19382 -10.18532 -10.18532
 Alpha  occ. eigenvalues --  -10.18482 -10.18482 -10.18481 -10.18481 -10.18387
 Alpha  occ. eigenvalues --  -10.18387 -10.18372 -10.18372 -10.18319 -10.18319
 Alpha  occ. eigenvalues --  -10.18294 -10.18294 -10.18181 -10.18181 -10.18129
 Alpha  occ. eigenvalues --  -10.18129 -10.18099 -10.18098 -10.18023 -10.18023
 Alpha  occ. eigenvalues --  -10.17236 -10.17236 -10.17188 -10.17178 -10.17178
 Alpha  occ. eigenvalues --  -10.17166 -10.17166 -10.17117 -10.17093 -10.17093
 Alpha  occ. eigenvalues --  -10.17080 -10.17080 -10.17002 -10.17002  -0.89940
 Alpha  occ. eigenvalues --   -0.88583  -0.88443  -0.87129  -0.86117  -0.84822
 Alpha  occ. eigenvalues --   -0.82978  -0.81693  -0.80378  -0.79080  -0.79044
 Alpha  occ. eigenvalues --   -0.78853  -0.77801  -0.77558  -0.76522  -0.75244
 Alpha  occ. eigenvalues --   -0.74820  -0.73531  -0.73430  -0.72159  -0.69733
 Alpha  occ. eigenvalues --   -0.68446  -0.67896  -0.66615  -0.63270  -0.62903
 Alpha  occ. eigenvalues --   -0.61990  -0.61650  -0.61637  -0.60481  -0.60308
 Alpha  occ. eigenvalues --   -0.59818  -0.59179  -0.58541  -0.58211  -0.56962
 Alpha  occ. eigenvalues --   -0.53242  -0.53087  -0.52808  -0.51980  -0.51812
 Alpha  occ. eigenvalues --   -0.51569  -0.50154  -0.49043  -0.48887  -0.47809
 Alpha  occ. eigenvalues --   -0.47657  -0.46603  -0.46423  -0.46064  -0.46019
 Alpha  occ. eigenvalues --   -0.45347  -0.44820  -0.44743  -0.44457  -0.43674
 Alpha  occ. eigenvalues --   -0.43218  -0.43059  -0.42443  -0.42312  -0.42085
 Alpha  occ. eigenvalues --   -0.41953  -0.41802  -0.41250  -0.41023  -0.40925
 Alpha  occ. eigenvalues --   -0.40794  -0.40651  -0.40181  -0.39941  -0.39686
 Alpha  occ. eigenvalues --   -0.38865  -0.38699  -0.37448  -0.37342  -0.36849
 Alpha  occ. eigenvalues --   -0.36051  -0.36029  -0.35651  -0.34725  -0.34636
 Alpha  occ. eigenvalues --   -0.34305  -0.33571  -0.33485  -0.33360  -0.32994
 Alpha  occ. eigenvalues --   -0.32234  -0.32214  -0.32213  -0.30848  -0.30242
 Alpha  occ. eigenvalues --   -0.28987  -0.28921  -0.27716  -0.27190  -0.25887
 Alpha  occ. eigenvalues --   -0.24993  -0.23661  -0.23144  -0.21847  -0.18426
 Alpha  occ. eigenvalues --   -0.17103
 Alpha virt. eigenvalues --   -0.10337  -0.09017  -0.05026  -0.03746  -0.03337
 Alpha virt. eigenvalues --   -0.02039  -0.00707   0.00565   0.01522   0.01798
 Alpha virt. eigenvalues --    0.02591   0.02767   0.03062   0.03749   0.03970
 Alpha virt. eigenvalues --    0.03990   0.04620   0.05243   0.05731   0.05909
 Alpha virt. eigenvalues --    0.05910   0.06389   0.07237   0.07515   0.07756
 Alpha virt. eigenvalues --    0.07886   0.08217   0.08862   0.09002   0.09271
 Alpha virt. eigenvalues --    0.09543   0.09754   0.10595   0.10705   0.11231
 Alpha virt. eigenvalues --    0.11456   0.12371   0.12471   0.13494   0.13565
 Alpha virt. eigenvalues --    0.14278   0.14701   0.14819   0.15504   0.17527
 Alpha virt. eigenvalues --    0.17891   0.18389   0.18718   0.18785   0.18939
 Alpha virt. eigenvalues --    0.19478   0.20117   0.22361   0.22428   0.23533
 Alpha virt. eigenvalues --    0.23732   0.23885   0.24492   0.25085   0.25114
 Alpha virt. eigenvalues --    0.25286   0.26202   0.27060   0.27069   0.27233
 Alpha virt. eigenvalues --    0.27734   0.27867   0.28032   0.28585   0.28761
 Alpha virt. eigenvalues --    0.28879   0.29329   0.29511   0.30031   0.30097
 Alpha virt. eigenvalues --    0.30181   0.30661   0.31288   0.31515   0.31973
 Alpha virt. eigenvalues --    0.32100   0.34007   0.34395   0.35118   0.35652
 Alpha virt. eigenvalues --    0.35755   0.35847   0.36323   0.36331   0.36758
 Alpha virt. eigenvalues --    0.37011   0.37425   0.37568   0.38192   0.38268
 Alpha virt. eigenvalues --    0.38623   0.38735   0.38809   0.39013   0.39115
 Alpha virt. eigenvalues --    0.39123   0.39687   0.39728   0.39778   0.39980
 Alpha virt. eigenvalues --    0.40004   0.40305   0.40588   0.41415   0.41556
 Alpha virt. eigenvalues --    0.41965   0.42068   0.42283   0.42472   0.42502
 Alpha virt. eigenvalues --    0.42555   0.42564   0.42981   0.43213   0.43477
 Alpha virt. eigenvalues --    0.43599   0.43795   0.44229   0.44250   0.44268
 Alpha virt. eigenvalues --    0.44713   0.44917   0.45213   0.45428   0.45864
 Alpha virt. eigenvalues --    0.45904   0.46102   0.46262   0.46477   0.46586
 Alpha virt. eigenvalues --    0.46872   0.46990   0.47300   0.47442   0.47506
 Alpha virt. eigenvalues --    0.47629   0.47914   0.48218   0.48854   0.49156
 Alpha virt. eigenvalues --    0.49293   0.49404   0.49737   0.49779   0.50265
 Alpha virt. eigenvalues --    0.50269   0.50525   0.50577   0.50930   0.51005
 Alpha virt. eigenvalues --    0.51390   0.51887   0.52411   0.53299   0.54028
 Alpha virt. eigenvalues --    0.54032   0.54067   0.54609   0.54881   0.55052
 Alpha virt. eigenvalues --    0.55150   0.56885   0.57301   0.57484   0.57595
 Alpha virt. eigenvalues --    0.58465   0.58783   0.59022   0.59206   0.59270
 Alpha virt. eigenvalues --    0.59936   0.60682   0.60806   0.60962   0.61519
 Alpha virt. eigenvalues --    0.61652   0.61703   0.61841   0.62247   0.62480
 Alpha virt. eigenvalues --    0.62505   0.62695   0.63119   0.63456   0.63475
 Alpha virt. eigenvalues --    0.63993   0.64046   0.64946   0.64989   0.65700
 Alpha virt. eigenvalues --    0.66114   0.66167   0.66267   0.66294   0.66517
 Alpha virt. eigenvalues --    0.67208   0.67366   0.69097   0.70105   0.70896
 Alpha virt. eigenvalues --    0.71038   0.71049   0.71391   0.71591   0.72135
 Alpha virt. eigenvalues --    0.72496   0.72739   0.72850   0.73040   0.73656
 Alpha virt. eigenvalues --    0.73992   0.74667   0.75339   0.75464   0.76045
 Alpha virt. eigenvalues --    0.76114   0.77166   0.77455   0.77470   0.77740
 Alpha virt. eigenvalues --    0.78304   0.78881   0.79221   0.79406   0.80522
 Alpha virt. eigenvalues --    0.80694   0.81040   0.81199   0.81254   0.81833
 Alpha virt. eigenvalues --    0.82423   0.82574   0.82727   0.83076   0.83154
 Alpha virt. eigenvalues --    0.83426   0.84223   0.84283   0.85229   0.85303
 Alpha virt. eigenvalues --    0.85530   0.86330   0.87235   0.87592   0.87911
 Alpha virt. eigenvalues --    0.89111   0.89565   0.90381   0.90530   0.90912
 Alpha virt. eigenvalues --    0.91059   0.91449   0.92341   0.93323   0.93787
 Alpha virt. eigenvalues --    0.93974   0.94530   0.95374   0.95572   0.95847
 Alpha virt. eigenvalues --    0.96116   0.96410   0.96427   0.96620   0.97233
 Alpha virt. eigenvalues --    0.98064   0.98706   0.98910   0.99064   0.99281
 Alpha virt. eigenvalues --    0.99582   0.99940   1.01204   1.01830   1.02196
 Alpha virt. eigenvalues --    1.02391   1.02774   1.03438   1.03895   1.03912
 Alpha virt. eigenvalues --    1.04230   1.04751   1.04960   1.05145   1.05460
 Alpha virt. eigenvalues --    1.05835   1.06065   1.06160   1.06190   1.06283
 Alpha virt. eigenvalues --    1.06760   1.06942   1.07056   1.08073   1.08207
 Alpha virt. eigenvalues --    1.08848   1.09156   1.09172   1.09530   1.10172
 Alpha virt. eigenvalues --    1.10785   1.10993   1.11715   1.12541   1.12688
 Alpha virt. eigenvalues --    1.12790   1.12966   1.13149   1.13951   1.13976
 Alpha virt. eigenvalues --    1.14879   1.15249   1.15349   1.16103   1.16321
 Alpha virt. eigenvalues --    1.17167   1.17834   1.18233   1.19105   1.20553
 Alpha virt. eigenvalues --    1.20953   1.21957   1.22647   1.22665   1.22972
 Alpha virt. eigenvalues --    1.24115   1.25214   1.27360   1.27724   1.30092
 Alpha virt. eigenvalues --    1.30364   1.30881   1.31611   1.32301   1.33016
 Alpha virt. eigenvalues --    1.34669   1.35427   1.35980   1.36456   1.37153
 Alpha virt. eigenvalues --    1.38792   1.39114   1.39564   1.39914   1.40343
 Alpha virt. eigenvalues --    1.40453   1.40846   1.40861   1.41552   1.42257
 Alpha virt. eigenvalues --    1.42865   1.43272   1.43837   1.44182   1.44560
 Alpha virt. eigenvalues --    1.44920   1.45811   1.46423   1.46945   1.47051
 Alpha virt. eigenvalues --    1.47527   1.47805   1.48452   1.48651   1.48718
 Alpha virt. eigenvalues --    1.48824   1.49664   1.50015   1.50098   1.50467
 Alpha virt. eigenvalues --    1.50859   1.51317   1.51536   1.52313   1.52982
 Alpha virt. eigenvalues --    1.53093   1.53274   1.53637   1.53796   1.53832
 Alpha virt. eigenvalues --    1.54580   1.54679   1.55125   1.55126   1.55240
 Alpha virt. eigenvalues --    1.55620   1.56858   1.57829   1.57875   1.58151
 Alpha virt. eigenvalues --    1.58986   1.59065   1.59362   1.60425   1.60690
 Alpha virt. eigenvalues --    1.61714   1.61933   1.62245   1.62792   1.63902
 Alpha virt. eigenvalues --    1.64567   1.64969   1.66113   1.66846   1.67501
 Alpha virt. eigenvalues --    1.69053   1.69108   1.69192   1.70075   1.70395
 Alpha virt. eigenvalues --    1.70528   1.71416   1.71490   1.72064   1.72803
 Alpha virt. eigenvalues --    1.72840   1.73137   1.73214   1.73433   1.73746
 Alpha virt. eigenvalues --    1.73770   1.74417   1.74531   1.74654   1.76507
 Alpha virt. eigenvalues --    1.76996   1.77916   1.78228   1.78684   1.79474
 Alpha virt. eigenvalues --    1.79934   1.80048   1.80061   1.81274   1.81862
 Alpha virt. eigenvalues --    1.82084   1.82236   1.82365   1.82543   1.82752
 Alpha virt. eigenvalues --    1.83225   1.83540   1.83641   1.84854   1.85035
 Alpha virt. eigenvalues --    1.85169   1.86404   1.86961   1.87180   1.87346
 Alpha virt. eigenvalues --    1.87617   1.87701   1.87933   1.88360   1.88440
 Alpha virt. eigenvalues --    1.88600   1.88762   1.88869   1.89501   1.90249
 Alpha virt. eigenvalues --    1.90730   1.91471   1.91806   1.91824   1.92178
 Alpha virt. eigenvalues --    1.92222   1.92889   1.92961   1.93032   1.93507
 Alpha virt. eigenvalues --    1.93508   1.93581   1.94096   1.94418   1.95261
 Alpha virt. eigenvalues --    1.95567   1.95658   1.96259   1.96264   1.97023
 Alpha virt. eigenvalues --    1.98189   1.99546   2.00172   2.00310   2.00738
 Alpha virt. eigenvalues --    2.01069   2.01129   2.02309   2.02549   2.03751
 Alpha virt. eigenvalues --    2.05163   2.05391   2.07523   2.07740   2.08594
 Alpha virt. eigenvalues --    2.09018   2.09232   2.09938   2.10725   2.11083
 Alpha virt. eigenvalues --    2.11087   2.11659   2.12979   2.13889   2.14972
 Alpha virt. eigenvalues --    2.15211   2.15795   2.16456   2.16673   2.17162
 Alpha virt. eigenvalues --    2.17932   2.19212   2.20324   2.21389   2.21673
 Alpha virt. eigenvalues --    2.22127   2.22506   2.22846   2.22961   2.23639
 Alpha virt. eigenvalues --    2.23981   2.24959   2.25313   2.26548   2.26676
 Alpha virt. eigenvalues --    2.26712   2.27140   2.27210   2.27546   2.27950
 Alpha virt. eigenvalues --    2.27994   2.29006   2.29072   2.30233   2.31538
 Alpha virt. eigenvalues --    2.33710   2.34631   2.35198   2.36513   2.38692
 Alpha virt. eigenvalues --    2.38840   2.40114   2.40332   2.40349   2.41791
 Alpha virt. eigenvalues --    2.42238   2.42675   2.43638   2.44056   2.45201
 Alpha virt. eigenvalues --    2.45435   2.46031   2.46589   2.46780   2.48176
 Alpha virt. eigenvalues --    2.51306   2.52643   2.52703   2.53017   2.54059
 Alpha virt. eigenvalues --    2.54301   2.54665   2.55283   2.55822   2.56867
 Alpha virt. eigenvalues --    2.57370   2.58248   2.58640   2.58984   2.59256
 Alpha virt. eigenvalues --    2.59666   2.60273   2.60534   2.61074   2.61182
 Alpha virt. eigenvalues --    2.61277   2.61346   2.61595   2.61838   2.62864
 Alpha virt. eigenvalues --    2.62943   2.63465   2.63843   2.64029   2.64371
 Alpha virt. eigenvalues --    2.65315   2.65457   2.65564   2.66382   2.66715
 Alpha virt. eigenvalues --    2.66939   2.67045   2.67665   2.67736   2.67805
 Alpha virt. eigenvalues --    2.68325   2.68764   2.68934   2.69078   2.69085
 Alpha virt. eigenvalues --    2.69193   2.69284   2.69622   2.69802   2.70418
 Alpha virt. eigenvalues --    2.70566   2.70965   2.70996   2.71880   2.71937
 Alpha virt. eigenvalues --    2.72310   2.73018   2.73027   2.73774   2.73922
 Alpha virt. eigenvalues --    2.74369   2.74852   2.75558   2.76107   2.76678
 Alpha virt. eigenvalues --    2.76780   2.77161   2.78015   2.78330   2.78345
 Alpha virt. eigenvalues --    2.78836   2.79019   2.79588   2.79633   2.80002
 Alpha virt. eigenvalues --    2.80639   2.81875   2.82006   2.83290   2.84701
 Alpha virt. eigenvalues --    2.85305   2.86120   2.86216   2.86590   2.86864
 Alpha virt. eigenvalues --    2.87786   2.88294   2.89114   2.90476   2.91673
 Alpha virt. eigenvalues --    2.92357   2.92730   2.92968   2.93184   2.93261
 Alpha virt. eigenvalues --    2.95352   2.95824   2.95850   2.97317   2.97463
 Alpha virt. eigenvalues --    2.98761   2.98929   3.00373   3.01283   3.02461
 Alpha virt. eigenvalues --    3.04198   3.04994   3.05994   3.06841   3.06961
 Alpha virt. eigenvalues --    3.07988   3.08465   3.15611   3.15940   3.16467
 Alpha virt. eigenvalues --    3.16823   3.17138   3.17667   3.19301   3.20123
 Alpha virt. eigenvalues --    3.20677   3.21056   3.23693   3.24387   3.29065
 Alpha virt. eigenvalues --    3.29726   3.30065   3.30548   3.31085   3.32590
 Alpha virt. eigenvalues --    3.35036   3.35325   3.36100   3.36259   3.36428
 Alpha virt. eigenvalues --    3.36833   3.37002   3.37449   3.38888   3.39259
 Alpha virt. eigenvalues --    3.39338   3.40819   3.40859   3.42323   3.44452
 Alpha virt. eigenvalues --    3.44847   3.45795   3.46311   3.48817   3.48995
 Alpha virt. eigenvalues --    3.49941   3.50664   3.50767   3.51297   3.52678
 Alpha virt. eigenvalues --    3.54161   3.56915   3.58201   3.58297   3.59546
 Alpha virt. eigenvalues --    3.61074   3.62170   3.62376   3.63193   3.63616
 Alpha virt. eigenvalues --    3.63670   3.65738   3.66325   3.66436   3.67822
 Alpha virt. eigenvalues --    3.68301   3.68371   3.70207   3.70424   4.00005
 Alpha virt. eigenvalues --    4.00068   4.01369   4.01582   4.01620   4.01692
 Alpha virt. eigenvalues --    4.02686   4.03026   4.15622   4.16180   4.17057
 Alpha virt. eigenvalues --    4.17334   4.17938   4.19965   4.20725   4.21872
 Alpha virt. eigenvalues --    4.21980   4.22316   4.23531   4.24014   4.25385
 Alpha virt. eigenvalues --    4.27687   4.38169   4.39932   4.61720   4.63509
 Alpha virt. eigenvalues --    4.78620   4.79202   4.79991   4.80215   4.80669
 Alpha virt. eigenvalues --    4.81655   4.81980   4.82430   4.83784   4.84170
 Alpha virt. eigenvalues --   23.39461  23.42331  23.54802  23.57647  23.69431
 Alpha virt. eigenvalues --   23.71625  23.76838  23.78379  23.80782  23.81004
 Alpha virt. eigenvalues --   23.81987  23.82802  23.85575  23.87044  23.88545
 Alpha virt. eigenvalues --   23.89515  23.90007  23.90516  23.91658  23.93222
 Alpha virt. eigenvalues --   23.96978  23.98093  23.98432  23.99211  24.08690
 Alpha virt. eigenvalues --   24.09455  24.09898  24.10105  24.10724  24.11321
 Alpha virt. eigenvalues --   24.11656  24.13208  24.13219  24.13809  24.14748
 Alpha virt. eigenvalues --   24.15281  24.15318  24.15418  24.16488  24.16521
 Alpha virt. eigenvalues --   24.19942  24.19987  24.21307  24.21365
          Condensed to atoms (all electrons):
 Mulliken charges:
               1
     1  C   -0.063160
     2  C   -0.063160
     3  C   -0.056890
     4  C   -0.056890
     5  C   -0.093595
     6  C   -0.093595
     7  C   -0.017249
     8  C   -0.057981
     9  C   -0.017249
    10  C   -0.057981
    11  H    0.084847
    12  H    0.077300
    13  H    0.077300
    14  H    0.084847
    15  H    0.097439
    16  H    0.097439
    17  C   -0.021650
    18  C   -0.057981
    19  C   -0.021649
    20  C   -0.057981
    21  H    0.075962
    22  H    0.075962
    23  C   -0.017249
    24  C   -0.063160
    25  C   -0.017249
    26  C   -0.063160
    27  H    0.077300
    28  H    0.077300
    29  C   -0.056890
    30  C   -0.093595
    31  C   -0.056890
    32  C   -0.093595
    33  H    0.084847
    34  H    0.097439
    35  H    0.097439
    36  H    0.084847
    37  C   -0.039836
    38  C   -0.097298
    39  C   -0.061040
    40  C   -0.053413
    41  C   -0.088878
    42  C   -0.110795
    43  C   -0.025955
    44  C   -0.031018
    45  C   -0.011851
    46  C   -0.098389
    47  H    0.079257
    48  H    0.071316
    49  H    0.110270
    50  H    0.114729
    51  H    0.089093
    52  H    0.091746
    53  C   -0.030277
    54  C   -0.031018
    55  C   -0.015333
    56  C   -0.098389
    57  H    0.069900
    58  H    0.108359
    59  C   -0.025955
    60  C   -0.039836
    61  C   -0.011851
    62  C   -0.097298
    63  H    0.071316
    64  H    0.110270
    65  C   -0.061040
    66  C   -0.088878
    67  C   -0.053413
    68  C   -0.110795
    69  H    0.079257
    70  H    0.091746
    71  H    0.089093
    72  H    0.114729
 Sum of Mulliken charges =   0.00000
 Mulliken charges with hydrogens summed into heavy atoms:
               1
     1  C   -0.063160
     2  C   -0.063160
     3  C    0.027957
     4  C    0.027957
     5  C    0.003844
     6  C    0.003844
     7  C    0.060051
     8  C   -0.057981
     9  C    0.060052
    10  C   -0.057981
    17  C    0.054312
    18  C   -0.057981
    19  C    0.054312
    20  C   -0.057981
    23  C    0.060051
    24  C   -0.063160
    25  C    0.060052
    26  C   -0.063160
    29  C    0.027957
    30  C    0.003844
    31  C    0.027957
    32  C    0.003844
    37  C   -0.039836
    38  C   -0.097298
    39  C    0.018217
    40  C    0.061316
    41  C    0.002868
    42  C   -0.021702
    43  C    0.045361
    44  C   -0.031018
    45  C    0.098419
    46  C   -0.098389
    53  C    0.039624
    54  C   -0.031018
    55  C    0.093026
    56  C   -0.098389
    59  C    0.045361
    60  C   -0.039836
    61  C    0.098419
    62  C   -0.097298
    65  C    0.018217
    66  C    0.002868
    67  C    0.061316
    68  C   -0.021702
         Mulliken charges condensed to fragments:
      1     -0.008527
      2      0.008527
 Electronic spatial extent (au):  <R**2>=          26940.1218
 Charge=              0.0000 electrons
 Dipole moment (field-independent basis, Debye):
    X=              0.0000    Y=             -1.2229    Z=              0.0000  Tot=              1.2229
 Quadrupole moment (field-independent basis, Debye-Ang):
   XX=           -246.1604   YY=           -249.0038   ZZ=           -219.4847
   XY=              0.0000   XZ=              0.0000   YZ=              0.0000
 Traceless Quadrupole moment (field-independent basis, Debye-Ang):
   XX=             -7.9441   YY=            -10.7875   ZZ=             18.7316
   XY=              0.0000   XZ=              0.0000   YZ=              0.0000
 Octapole moment (field-independent basis, Debye-Ang**2):
  XXX=              0.0000  YYY=            192.6043  ZZZ=              0.0000  XYY=              0.0000
  XXY=            -76.4344  XXZ=              0.0000  XZZ=              0.0000  YZZ=            -28.6656
  YYZ=              0.0000  XYZ=              0.0000
 Hexadecapole moment (field-independent basis, Debye-Ang**3):
 XXXX=          -1261.5514 YYYY=         -13191.9293 ZZZZ=         -21015.0511 XXXY=             -0.0001
 XXXZ=              0.0000 YYYX=              0.0001 YYYZ=              0.0000 ZZZX=              0.0000
 ZZZY=              0.0000 XXYY=          -2482.7880 XXZZ=          -4163.9050 YYZZ=          -5952.9972
 XXYZ=              0.0000 YYXZ=              0.0000 ZZXY=              0.0001
 N-N= 4.557515363948D+03 E-N=-1.304546899651D+04  KE= 1.686672672151D+03
 Symmetry A'   KE= 9.134142718593D+02
 Symmetry A"   KE= 7.732584002922D+02
 No NMR shielding tensors so no spin-rotation constants.
 Leave Link  601 at Wed Sep 27 16:59:20 2023, MaxMem=  3221225472 cpu:              51.9 elap:               1.4
 (Enter /home/center/opt/aarch64/apps/gaussian16/c01/g16/l122.exe)
 CPIOFr:  IOpCl= 0 IRwI=-1 IRwCP=  731 ICalc= -1 LCPTot=     1419224 Len1MO=     3708034 IndFrg=     1419224
 CPIOFr:  IOpCl= 0 IRwI=-1 IRwCP=  731 ICalc=  0 LCPTot=     1419224 Len1MO=     3708034 IndFrg=     5127258
 Counterpoise: doing calculation for fragment   1 using the basis set of the full-system, NewBq=T
 Leave Link  122 at Wed Sep 27 16:59:23 2023, MaxMem=  3221225472 cpu:               8.4 elap:               0.4
 (Enter /home/center/opt/aarch64/apps/gaussian16/c01/g16/l301.exe)
 Basis read from rwf:  (5D, 7F)
 No pseudopotential information found on rwf file.
 There are   528 symmetry adapted cartesian basis functions of A'  symmetry.
 There are   476 symmetry adapted cartesian basis functions of A"  symmetry.
 There are   504 symmetry adapted basis functions of A'  symmetry.
 There are   456 symmetry adapted basis functions of A"  symmetry.
   960 basis functions,  1632 primitive gaussians,  1004 cartesian basis functions
    73 alpha electrons       73 beta electrons
       nuclear repulsion energy      1494.3575060741 Hartrees.
 IExCor=  402 DFT=T Ex+Corr=B3LYP ExCW=0 ScaHFX=  0.200000
 ScaDFX=  0.800000  0.720000  1.000000  0.810000 ScalE2=  1.000000  1.000000
 IRadAn=      5 IRanWt=     -1 IRanGd=            0 ICorTp=0 IEmpDi=131
 NAtoms=   72 NActive=   72 NUniq=   40 SFac= 3.24D+00 NAtFMM=   60 NAOKFM=T Big=F
 Integral buffers will be    131072 words long.
 Raffenetti 2 integral format.
 Two-electron integral symmetry is turned on.
 R6Disp:  Grimme-D3 Dispersion energy=       -0.0303938888 Hartrees.
 Nuclear repulsion after empirical dispersion term =     1494.3271121853 Hartrees.
 No density basis found on file    718.
 Leave Link  301 at Wed Sep 27 16:59:25 2023, MaxMem=  3221225472 cpu:               2.4 elap:               0.1
 (Enter /home/center/opt/aarch64/apps/gaussian16/c01/g16/l302.exe)
 NPDir=0 NMtPBC=     1 NCelOv=     1 NCel=       1 NClECP=     1 NCelD=      1
         NCelK=      1 NCelE2=     1 NClLst=     1 CellRange=     0.0.
 One-electron integrals computed using PRISM.
 One-electron integral symmetry used in STVInt
 NBasis=   960 RedAO= T EigKep=  3.91D-05  NBF=   504   456
 NBsUse=   960 1.00D-06 EigRej= -1.00D+00 NBFU=   504   456
 Precomputing XC quadrature grid using
 IXCGrd= 4 IRadAn=           5 IRanWt=          -1 IRanGd=           0 AccXCQ= 0.00D+00.
 Generated NRdTot=       0 NPtTot=           0 NUsed=           0 NTot=          32
 NSgBfM=   991   987   987   987   991 MxSgAt=    72 MxSgA2=    72.
 Leave Link  302 at Wed Sep 27 16:59:29 2023, MaxMem=  3221225472 cpu:              61.9 elap:               1.6
 (Enter /home/center/opt/aarch64/apps/gaussian16/c01/g16/l303.exe)
 DipDrv:  MaxL=1.
 Leave Link  303 at Wed Sep 27 16:59:32 2023, MaxMem=  3221225472 cpu:              13.9 elap:               0.4
 (Enter /home/center/opt/aarch64/apps/gaussian16/c01/g16/l401.exe)
 ExpMin= 1.03D-01 ExpMax= 4.56D+03 ExpMxC= 6.82D+02 IAcc=3 IRadAn=         5 AccDes= 0.00D+00
 Harris functional with IExCor=  402 and IRadAn=       5 diagonalized for initial guess.
 HarFok:  IExCor=  402 AccDes= 0.00D+00 IRadAn=         5 IDoV= 1 UseB2=F ITyADJ=14
 ICtDFT=  3500011 ScaDFX=  1.000000  1.000000  1.000000  1.000000
 FoFCou: FMM=F IPFlag=           0 FMFlag=      100000 FMFlg1=        2000
         NFxFlg=           0 DoJE=T BraDBF=F KetDBF=T FulRan=T
         wScrn=  0.000000 ICntrl=       500 IOpCl=  0 I1Cent=   200000004 NGrid=           0
         NMat0=    1 NMatS0=      1 NMatT0=    0 NMatD0=    1 NMtDS0=    0 NMtDT0=    0
 Petite list used in FoFCou.
 Harris En= -847.066052352839    
 JPrj=0 DoOrth=F DoCkMO=F.
 Initial guess orbital symmetries:
       Occupied  (A") (A') (A') (A") (A") (A') (A") (A') (A') (A")
                 (A") (A') (A') (A') (A") (A') (A") (A') (A") (A')
                 (A') (A") (A') (A") (A') (A") (A') (A') (A") (A')
                 (A") (A") (A') (A') (A") (A") (A') (A") (A') (A')
                 (A') (A") (A") (A") (A') (A') (A") (A') (A') (A")
                 (A') (A") (A") (A') (A') (A") (A') (A") (A') (A")
                 (A") (A') (A') (A") (A') (A") (A') (A") (A') (A')
                 (A") (A") (A')
       Virtual   (A') (A") (A") (A') (A') (A") (A') (A") (A') (A")
                 (A') (A') (A") (A') (A") (A') (A') (A") (A') (A")
                 (A") (A") (A') (A') (A") (A') (A') (A') (A') (A')
                 (A") (A") (A') (A") (A') (A") (A') (A") (A") (A')
                 (A') (A") (A") (A') (A") (A') (A") (A') (A") (A')
                 (A') (A") (A') (A") (A') (A") (A') (A') (A") (A')
                 (A") (A') (A') (A") (A") (A') (A") (A') (A") (A')
                 (A") (A') (A') (A") (A") (A') (A') (A') (A') (A')
                 (A") (A') (A") (A") (A") (A') (A") (A') (A') (A")
                 (A") (A") (A") (A') (A') (A") (A') (A") (A') (A')
                 (A') (A') (A") (A') (A") (A") (A') (A') (A") (A')
                 (A") (A') (A') (A') (A") (A') (A") (A") (A") (A")
                 (A") (A') (A") (A') (A") (A') (A') (A") (A') (A')
                 (A') (A") (A') (A') (A") (A') (A") (A') (A") (A')
                 (A') (A') (A") (A') (A") (A") (A') (A') (A") (A")
                 (A') (A") (A") (A') (A") (A") (A') (A') (A') (A")
                 (A") (A') (A") (A') (A') (A') (A") (A') (A") (A")
                 (A") (A") (A') (A') (A') (A") (A') (A') (A") (A')
                 (A') (A") (A") (A') (A") (A") (A') (A") (A") (A')
                 (A') (A') (A') (A") (A') (A') (A") (A") (A') (A")
                 (A') (A") (A") (A') (A") (A") (A') (A') (A') (A")
                 (A') (A") (A') (A") (A') (A") (A") (A") (A') (A')
                 (A") (A') (A') (A") (A') (A') (A") (A') (A') (A")
                 (A") (A') (A') (A") (A') (A") (A") (A') (A") (A")
                 (A') (A') (A") (A") (A') (A') (A") (A') (A") (A")
                 (A") (A') (A") (A') (A') (A') (A') (A') (A") (A')
                 (A") (A") (A") (A') (A') (A') (A") (A") (A') (A')
                 (A") (A") (A') (A") (A") (A') (A') (A") (A") (A')
                 (A') (A") (A') (A") (A') (A") (A') (A") (A') (A")
                 (A') (A') (A") (A') (A') (A') (A") (A") (A') (A")
                 (A') (A') (A') (A") (A") (A") (A') (A") (A') (A')
                 (A") (A") (A") (A") (A') (A') (A') (A") (A') (A')
                 (A") (A') (A") (A") (A') (A") (A') (A') (A') (A")
                 (A") (A') (A') (A') (A") (A') (A") (A') (A") (A')
                 (A") (A') (A") (A") (A') (A") (A") (A') (A') (A')
                 (A') (A") (A") (A') (A") (A') (A') (A") (A') (A")
                 (A') (A') (A") (A') (A") (A") (A") (A') (A') (A")
                 (A') (A") (A') (A") (A') (A") (A") (A') (A") (A')
                 (A') (A") (A') (A") (A") (A') (A') (A") (A') (A")
                 (A') (A") (A") (A') (A') (A") (A') (A') (A") (A")
                 (A") (A') (A') (A") (A') (A") (A") (A') (A') (A")
                 (A") (A') (A') (A') (A') (A") (A") (A") (A') (A')
                 (A") (A") (A') (A") (A') (A") (A') (A") (A") (A')
                 (A") (A') (A') (A') (A') (A') (A") (A") (A") (A')
                 (A") (A') (A') (A') (A") (A') (A") (A") (A") (A')
                 (A") (A') (A') (A') (A') (A") (A') (A") (A") (A')
                 (A") (A") (A') (A") (A") (A') (A') (A') (A") (A')
                 (A") (A') (A') (A") (A") (A") (A") (A') (A') (A")
                 (A') (A") (A") (A') (A") (A') (A') (A") (A") (A')
                 (A") (A') (A") (A') (A') (A") (A') (A') (A") (A")
                 (A') (A") (A') (A") (A") (A') (A') (A") (A') (A')
                 (A') (A") (A") (A") (A") (A") (A') (A') (A') (A')
                 (A") (A") (A') (A') (A") (A') (A') (A") (A") (A')
                 (A") (A') (A") (A') (A') (A') (A") (A") (A') (A')
                 (A") (A') (A") (A') (A') (A") (A") (A') (A') (A")
                 (A') (A") (A") (A") (A') (A") (A') (A') (A') (A")
                 (A') (A') (A") (A') (A") (A") (A") (A") (A') (A")
                 (A') (A') (A') (A') (A') (A") (A") (A') (A') (A')
                 (A") (A") (A") (A") (A') (A') (A") (A") (A") (A')
                 (A') (A') (A") (A') (A') (A") (A') (A") (A') (A")
                 (A') (A") (A") (A") (A') (A') (A') (A") (A") (A')
                 (A') (A") (A") (A') (A') (A") (A') (A") (A') (A')
                 (A") (A') (A") (A") (A') (A") (A") (A') (A') (A")
                 (A') (A") (A") (A") (A") (A') (A') (A') (A') (A')
                 (A") (A") (A') (A') (A") (A") (A') (A") (A') (A")
                 (A') (A") (A') (A") (A') (A") (A") (A') (A") (A')
                 (A") (A') (A") (A') (A") (A') (A") (A") (A') (A')
                 (A') (A") (A") (A') (A') (A") (A') (A") (A') (A')
                 (A") (A') (A") (A') (A') (A") (A") (A') (A') (A")
                 (A') (A") (A') (A') (A") (A") (A') (A") (A') (A')
                 (A") (A") (A') (A") (A') (A") (A') (A') (A") (A')
                 (A") (A') (A") (A') (A") (A') (A') (A") (A') (A')
                 (A") (A") (A') (A") (A") (A') (A') (A') (A') (A")
                 (A") (A") (A') (A") (A') (A") (A') (A") (A") (A')
                 (A") (A') (A") (A') (A") (A') (A') (A") (A") (A')
                 (A') (A") (A') (A') (A") (A') (A") (A') (A") (A')
                 (A") (A') (A') (A") (A") (A') (A') (A') (A") (A")
                 (A") (A') (A') (A") (A') (A') (A") (A') (A") (A')
                 (A") (A') (A') (A") (A") (A") (A') (A") (A') (A')
                 (A") (A") (A') (A") (A') (A") (A') (A') (A') (A")
                 (A") (A') (A") (A') (A") (A') (A") (A') (A') (A")
                 (A") (A') (A') (A") (A') (A") (A") (A') (A") (A')
[...]
                 (A') (A') (A") (A") (A') (A") (A') (A") (A') (A')
                 (A") (A") (A')
       Virtual   (A') (A") (A") (A') (A') (A") (A') (A') (A') (A")
                 (A") (A') (A") (A') (A") (A') (A") (A") (A') (A")
                 (A') (A') (A") (A') (A") (A') (A') (A') (A') (A")
                 (A") (A") (A") (A') (A') (A") (A') (A") (A') (A")
                 (A') (A') (A') (A") (A') (A") (A") (A') (A') (A")
                 (A") (A') (A') (A") (A') (A") (A") (A") (A') (A")
                 (A') (A') (A') (A') (A') (A") (A') (A') (A") (A")
                 (A") (A') (A') (A') (A") (A') (A") (A") (A") (A')
                 (A') (A") (A') (A") (A") (A') (A") (A') (A') (A')
                 (A') (A') (A") (A") (A") (A") (A') (A") (A') (A")
                 (A') (A') (A') (A") (A") (A') (A') (A") (A') (A")
                 (A') (A") (A") (A") (A') (A') (A") (A') (A') (A")
                 (A') (A") (A") (A') (A') (A") (A') (A") (A') (A")
                 (A") (A') (A') (A') (A') (A") (A") (A") (A') (A")
                 (A') (A") (A') (A") (A') (A') (A") (A") (A') (A")
                 (A') (A") (A') (A") (A') (A') (A") (A') (A") (A")
                 (A') (A") (A') (A') (A") (A") (A') (A") (A') (A")
                 (A') (A') (A") (A') (A') (A") (A") (A') (A') (A')
                 (A") (A') (A") (A") (A") (A") (A') (A") (A') (A')
                 (A") (A') (A") (A') (A') (A') (A") (A') (A") (A')
                 (A") (A") (A') (A') (A") (A") (A') (A') (A") (A')
                 (A') (A') (A') (A") (A") (A") (A") (A') (A') (A")
                 (A') (A") (A") (A') (A") (A') (A") (A') (A") (A')
                 (A") (A') (A') (A") (A') (A") (A") (A') (A') (A")
                 (A") (A') (A') (A") (A") (A') (A") (A") (A") (A')
                 (A') (A") (A') (A') (A") (A') (A') (A") (A') (A")
                 (A") (A') (A") (A') (A') (A") (A") (A") (A') (A')
                 (A") (A') (A') (A") (A") (A") (A') (A") (A') (A')
                 (A") (A') (A") (A') (A") (A') (A') (A') (A") (A')
                 (A") (A") (A') (A') (A") (A") (A') (A") (A') (A")
                 (A') (A') (A") (A") (A') (A') (A") (A') (A') (A')
                 (A") (A") (A') (A") (A') (A") (A') (A") (A') (A')
                 (A') (A") (A") (A") (A') (A") (A') (A') (A') (A")
                 (A") (A') (A") (A') (A') (A") (A') (A") (A") (A')
                 (A') (A") (A') (A") (A") (A') (A') (A") (A') (A")
                 (A') (A") (A') (A") (A') (A") (A") (A') (A') (A")
                 (A') (A") (A') (A') (A") (A") (A') (A") (A') (A')
                 (A") (A') (A") (A') (A') (A") (A') (A") (A') (A")
                 (A") (A') (A") (A') (A") (A') (A") (A') (A') (A")
                 (A") (A') (A") (A') (A') (A") (A") (A') (A') (A")
                 (A') (A") (A') (A") (A') (A') (A")
 The electronic state is 1-A'.
 Alpha  occ. eigenvalues --  -10.18931 -10.18930 -10.18896 -10.18895 -10.18848
 Alpha  occ. eigenvalues --  -10.18848 -10.18813 -10.18813 -10.17956 -10.17955
 Alpha  occ. eigenvalues --  -10.17920 -10.17920 -10.17919 -10.17919 -10.17875
 Alpha  occ. eigenvalues --  -10.17875 -10.17863 -10.17863 -10.17808 -10.17808
 Alpha  occ. eigenvalues --  -10.17781 -10.17781  -0.89340  -0.87865  -0.85549
 Alpha  occ. eigenvalues --   -0.82415  -0.79820  -0.78521  -0.78314  -0.75991
 Alpha  occ. eigenvalues --   -0.74255  -0.72901  -0.69196  -0.67344  -0.62728
 Alpha  occ. eigenvalues --   -0.62370  -0.61108  -0.59964  -0.59301  -0.57689
 Alpha  occ. eigenvalues --   -0.52709  -0.52573  -0.52293  -0.49654  -0.48513
 Alpha  occ. eigenvalues --   -0.47160  -0.46110  -0.45590  -0.45476  -0.43928
 Alpha  occ. eigenvalues --   -0.43182  -0.42578  -0.41808  -0.41572  -0.41386
 Alpha  occ. eigenvalues --   -0.40692  -0.40405  -0.39579  -0.38193  -0.36732
 Alpha  occ. eigenvalues --   -0.36341  -0.35550  -0.34094  -0.33809  -0.33058
 Alpha  occ. eigenvalues --   -0.32930  -0.31612  -0.29665  -0.28406  -0.26623
 Alpha  occ. eigenvalues --   -0.24364  -0.22582  -0.17855
 Alpha virt. eigenvalues --   -0.09755  -0.04464  -0.02747  -0.00147   0.02073
 Alpha virt. eigenvalues --    0.02370   0.03189   0.04746   0.04859   0.04871
 Alpha virt. eigenvalues --    0.06161   0.06575   0.07968   0.08162   0.08303
 Alpha virt. eigenvalues --    0.09607   0.10049   0.11524   0.11533   0.13796
 Alpha virt. eigenvalues --    0.14111   0.14670   0.18092   0.18194   0.18832
 Alpha virt. eigenvalues --    0.19391   0.22815   0.23002   0.24379   0.24942
 Alpha virt. eigenvalues --    0.25581   0.27528   0.27575   0.28012   0.28228
 Alpha virt. eigenvalues --    0.28947   0.29389   0.30158   0.30759   0.31175
 Alpha virt. eigenvalues --    0.32897   0.34528   0.36420   0.36484   0.37134
 Alpha virt. eigenvalues --    0.37503   0.37629   0.37651   0.38116   0.38643
 Alpha virt. eigenvalues --    0.39094   0.39439   0.39739   0.40236   0.40435
 Alpha virt. eigenvalues --    0.41918   0.41926   0.41940   0.42289   0.42318
 Alpha virt. eigenvalues --    0.42643   0.43748   0.44233   0.44835   0.45295
 Alpha virt. eigenvalues --    0.45683   0.45924   0.45953   0.46379   0.47165
 Alpha virt. eigenvalues --    0.47805   0.47809   0.47978   0.48073   0.48231
 Alpha virt. eigenvalues --    0.48568   0.49414   0.49572   0.51377   0.51846
 Alpha virt. eigenvalues --    0.52370   0.53118   0.53671   0.55998   0.57923
 Alpha virt. eigenvalues --    0.57955   0.59048   0.59201   0.60433   0.60585
 Alpha virt. eigenvalues --    0.60693   0.61101   0.61690   0.62105   0.62173
 Alpha virt. eigenvalues --    0.63432   0.63481   0.64458   0.64535   0.65533
 Alpha virt. eigenvalues --    0.66693   0.66910   0.67680   0.67724   0.70658
 Alpha virt. eigenvalues --    0.71305   0.71405   0.71494   0.72803   0.73989
 Alpha virt. eigenvalues --    0.75405   0.75894   0.76289   0.77801   0.77809
 Alpha virt. eigenvalues --    0.78943   0.79160   0.79723   0.81162   0.81509
 Alpha virt. eigenvalues --    0.82881   0.83001   0.84383   0.84585   0.84713
 Alpha virt. eigenvalues --    0.88087   0.89711   0.89765   0.91536   0.92083
 Alpha virt. eigenvalues --    0.92578   0.93749   0.95806   0.96107   0.96442
 Alpha virt. eigenvalues --    0.96590   0.96905   0.98547   1.00356   1.01118
 Alpha virt. eigenvalues --    1.02686   1.03027   1.03354   1.04405   1.05244
 Alpha virt. eigenvalues --    1.05439   1.05525   1.05950   1.07395   1.07547
 Alpha virt. eigenvalues --    1.07686   1.08438   1.10005   1.10036   1.12070
 Alpha virt. eigenvalues --    1.13223   1.13544   1.13650   1.14526   1.15341
 Alpha virt. eigenvalues --    1.17432   1.18332   1.19657   1.20432   1.23014
 Alpha virt. eigenvalues --    1.23618   1.27884   1.28234   1.30579   1.32076
 Alpha virt. eigenvalues --    1.32743   1.34942   1.37641   1.39236   1.39896
 Alpha virt. eigenvalues --    1.39942   1.40725   1.42751   1.43476   1.43554
 Alpha virt. eigenvalues --    1.45057   1.46086   1.47119   1.47538   1.48841
 Alpha virt. eigenvalues --    1.49280   1.49417   1.50258   1.50674   1.52268
 Alpha virt. eigenvalues --    1.52650   1.53402   1.54331   1.54372   1.54781
 Alpha virt. eigenvalues --    1.54807   1.57107   1.57715   1.58569   1.59882
 Alpha virt. eigenvalues --    1.60106   1.62692   1.63242   1.64856   1.66641
 Alpha virt. eigenvalues --    1.69292   1.69605   1.69709   1.70649   1.71804
 Alpha virt. eigenvalues --    1.72459   1.72619   1.73075   1.73096   1.73680
 Alpha virt. eigenvalues --    1.77494   1.78519   1.79157   1.79419   1.80511
 Alpha virt. eigenvalues --    1.81616   1.81887   1.82058   1.83581   1.84039
 Alpha virt. eigenvalues --    1.85487   1.87392   1.87456   1.87577   1.87728
 Alpha virt. eigenvalues --    1.88131   1.88613   1.90743   1.91387   1.92190
 Alpha virt. eigenvalues --    1.92193   1.92572   1.92670   1.93517   1.93938
 Alpha virt. eigenvalues --    1.94544   1.95483   1.97262   1.99429   2.00088
 Alpha virt. eigenvalues --    2.00602   2.01362   2.03019   2.05757   2.08293
 Alpha virt. eigenvalues --    2.09111   2.09256   2.09792   2.12192   2.14098
 Alpha virt. eigenvalues --    2.15528   2.15584   2.17200   2.19751   2.20833
 Alpha virt. eigenvalues --    2.21576   2.22525   2.23381   2.24503   2.26441
 Alpha virt. eigenvalues --    2.26972   2.27242   2.27719   2.28046   2.29391
 Alpha virt. eigenvalues --    2.33301   2.35725   2.39155   2.39384   2.40817
 Alpha virt. eigenvalues --    2.42649   2.43076   2.45776   2.45994   2.46870
 Alpha virt. eigenvalues --    2.51623   2.51954   2.53354   2.53485   2.55138
 Alpha virt. eigenvalues --    2.56159   2.58701   2.58838   2.59764   2.59776
 Alpha virt. eigenvalues --    2.60682   2.61147   2.61719   2.62222   2.63349
 Alpha virt. eigenvalues --    2.63999   2.64478   2.66054   2.66794   2.67121
 Alpha virt. eigenvalues --    2.67374   2.68356   2.68872   2.68876   2.69372
 Alpha virt. eigenvalues --    2.69557   2.69907   2.70083   2.70281   2.73482
 Alpha virt. eigenvalues --    2.74771   2.74836   2.76066   2.77101   2.77577
 Alpha virt. eigenvalues --    2.78232   2.78455   2.78850   2.80822   2.82359
 Alpha virt. eigenvalues --    2.85535   2.85993   2.86737   2.87294   2.90966
 Alpha virt. eigenvalues --    2.91783   2.92195   2.93676   2.95232   2.95887
 Alpha virt. eigenvalues --    2.99270   2.99858   3.03165   3.05604   3.06852
 Alpha virt. eigenvalues --    3.07371   3.15988   3.16029   3.16647   3.19843
 Alpha virt. eigenvalues --    3.20017   3.23601   3.29134   3.29680   3.31610
 Alpha virt. eigenvalues --    3.35095   3.35458   3.35677   3.35858   3.38023
 Alpha virt. eigenvalues --    3.39887   3.41413   3.44960   3.45362   3.47993
 Alpha virt. eigenvalues --    3.48278   3.50401   3.53073   3.57439   3.58649
 Alpha virt. eigenvalues --    3.61466   3.62620   3.63208   3.63698   3.65910
 Alpha virt. eigenvalues --    3.67534   3.67678   4.00384   4.00442   4.01859
 Alpha virt. eigenvalues --    4.02182   4.16133   4.16678   4.17360   4.21240
 Alpha virt. eigenvalues --    4.22396   4.22517   4.25488   4.38492   4.62290
 Alpha virt. eigenvalues --    4.79179   4.79740   4.80562   4.82562   4.83014
 Alpha virt. eigenvalues --   23.39176  23.54541  23.69085  23.77378  23.80419
 Alpha virt. eigenvalues --   23.81537  23.86099  23.89067  23.89154  23.92210
 Alpha virt. eigenvalues --   23.97563  23.98365  24.09049  24.09932  24.10529
 Alpha virt. eigenvalues --   24.12220  24.13779  24.14375  24.15775  24.15810
 Alpha virt. eigenvalues --   24.20452  24.20497
          Condensed to atoms (all electrons):
 Mulliken charges:
               1
     1  C    0.000000
     2  C    0.000000
     3  C    0.000000
     4  C    0.000000
     5  C    0.000000
     6  C    0.000000
     7  C    0.000000
     8  C    0.000000
     9  C    0.000000
    10  C    0.000000
    11  H    0.000000
    12  H    0.000000
    13  H    0.000000
    14  H    0.000000
    15  H    0.000000
    16  H    0.000000
    17  C    0.000000
    18  C    0.000000
    19  C    0.000000
    20  C    0.000000
    21  H    0.000000
    22  H    0.000000
    23  C    0.000000
    24  C    0.000000
    25  C    0.000000
    26  C    0.000000
    27  H    0.000000
    28  H    0.000000
    29  C    0.000000
    30  C    0.000000
    31  C    0.000000
    32  C    0.000000
    33  H    0.000000
    34  H    0.000000
    35  H    0.000000
    36  H    0.000000
    37  C   -0.059168
    38  C   -0.059168
    39  C   -0.055977
    40  C   -0.055977
    41  C   -0.092198
    42  C   -0.092198
    43  C   -0.016525
    44  C   -0.054498
    45  C   -0.016525
    46  C   -0.054498
    47  H    0.082122
    48  H    0.074853
    49  H    0.074853
    50  H    0.082122
    51  H    0.094847
    52  H    0.094847
    53  C   -0.020341
    54  C   -0.054498
    55  C   -0.020341
    56  C   -0.054498
    57  H    0.073428
    58  H    0.073428
    59  C   -0.016525
    60  C   -0.059168
    61  C   -0.016525
    62  C   -0.059168
    63  H    0.074853
    64  H    0.074853
    65  C   -0.055977
    66  C   -0.092198
    67  C   -0.055977
    68  C   -0.092198
    69  H    0.082122
    70  H    0.094847
    71  H    0.094847
    72  H    0.082122
 Sum of Mulliken charges =   0.00000
 Mulliken charges with hydrogens summed into heavy atoms:
               1
     1  C    0.000000
     2  C    0.000000
     3  C    0.000000
     4  C    0.000000
     5  C    0.000000
     6  C    0.000000
     7  C    0.000000
     8  C    0.000000
     9  C    0.000000
    10  C    0.000000
    17  C    0.000000
    18  C    0.000000
    19  C    0.000000
    20  C    0.000000
    23  C    0.000000
    24  C    0.000000
    25  C    0.000000
    26  C    0.000000
    29  C    0.000000
    30  C    0.000000
    31  C    0.000000
    32  C    0.000000
    37  C   -0.059168
    38  C   -0.059168
    39  C    0.026144
    40  C    0.026144
    41  C    0.002649
    42  C    0.002649
    43  C    0.058328
    44  C   -0.054498
    45  C    0.058328
    46  C   -0.054498
    53  C    0.053087
    54  C   -0.054498
    55  C    0.053087
    56  C   -0.054498
    59  C    0.058328
    60  C   -0.059168
    61  C    0.058328
    62  C   -0.059168
    65  C    0.026144
    66  C    0.002649
    67  C    0.026144
    68  C    0.002649
         Mulliken charges condensed to fragments:
      1      0.000000
      2      0.000000
 Electronic spatial extent (au):  <R**2>=          17640.1928
 Charge=              0.0000 electrons
 Dipole moment (field-independent basis, Debye):
    X=              0.0000    Y=              0.0000    Z=              0.0000  Tot=              0.0000
 Quadrupole moment (field-independent basis, Debye-Ang):
   XX=           -136.3921   YY=           -110.7480   ZZ=           -109.0115
   XY=              0.0000   XZ=              0.0000   YZ=              0.0000
 Traceless Quadrupole moment (field-independent basis, Debye-Ang):
   XX=            -17.6749   YY=              7.9692   ZZ=              9.7057
   XY=              0.0000   XZ=              0.0000   YZ=              0.0000
 Octapole moment (field-independent basis, Debye-Ang**2):
  XXX=           1157.3250  YYY=            939.7282  ZZZ=              0.0000  XYY=            313.2428
  XXY=            385.7750  XXZ=              0.0000  XZZ=            308.3310  YZZ=            308.3310
  YYZ=              0.0000  XYZ=              0.0000
 Hexadecapole moment (field-independent basis, Debye-Ang**3):
 XXXX=          -6701.2227 YYYY=          -6432.6223 ZZZZ=         -10461.4325 XXXY=          -3273.4094
 XXXZ=              0.0000 YYYX=          -2657.9527 YYYZ=              0.0000 ZZZX=              0.0000
 ZZZY=              0.0000 XXYY=          -2233.5361 XXZZ=          -3080.0238 YYZZ=          -2841.3062
 XXYZ=              0.0000 YYXZ=              0.0000 ZZXY=           -872.0918
 N-N= 1.494327110001D+03 E-N=-4.953709171465D+03  KE= 8.433374904125D+02
 Symmetry A'   KE= 4.567052305076D+02
 Symmetry A"   KE= 3.866322599049D+02
 No NMR shielding tensors so no spin-rotation constants.
 Leave Link  601 at Wed Sep 27 17:15:39 2023, MaxMem=  3221225472 cpu:              19.2 elap:               0.5
 (Enter /home/center/opt/aarch64/apps/gaussian16/c01/g16/l122.exe)
 CPIOFr:  IOpCl= 0 IRwI=-1 IRwCP=  731 ICalc=  4 LCPTot=     1419224 Len1MO=     3708034 IndFrg=    19959394
 Restoring MOs from calculation   1 to rwf.
 CPIOFr:  IOpCl= 0 IRwI=-2 IRwCP=  731 ICalc=  0 LCPTot=     1419224 Len1MO=     3708034 IndFrg=     5127258
 Counterpoise corrected energy =   -1694.041458335818
                   BSSE energy =       0.000021983378
              sum of fragments =   -1694.039683044267
           complexation energy =      -1.13 kcal/mole (raw)
           complexation energy =      -1.11 kcal/mole (corrected)
 Leave Link  122 at Wed Sep 27 17:15:42 2023, MaxMem=  3221225472 cpu:               8.3 elap:               0.3
 (Enter /home/center/opt/aarch64/apps/gaussian16/c01/g16/l9999.exe)

 Test job not archived.
 1\1\GINC-FX0491\SP\RB3LYP\6-311G(d,p)\C44H28\Z40145W\27-Sep-2023\0\\#P
  TEST b3lyp/6-311G** EmpiricalDispersion=GD3 counterpoise=2\\pentacene
 _A1=0_A2=0_A3=45_p2\\0,1\C,0,-0.5039478476,0.5239478476,-3.6612755801\
 C,0,0.5239480325,-0.5039480325,-3.6612755629\C,0,-0.9861248463,1.00612
 48463,-4.9235927708\C,0,1.0061250889,-0.9861250889,-4.9235926697\C,0,-
 0.4963213507,0.5163213507,-6.096356521\C,0,0.5163216812,-0.4963216812,
 -6.0963564796\C,0,-0.9844684311,1.0044684311,-2.4533174875\C,0,-0.5044
 88426,0.524488426,-1.2140288145\C,0,1.0044685359,-0.9844685359,-2.4533
 173917\C,0,0.5244885437,-0.5044885437,-1.2140288362\H,0,-1.7533559667,
 1.7733559667,-4.9232600459\H,0,-1.7521866813,1.7721866813,-2.453928581
 5\H,0,1.7721859268,-1.7521859268,-2.4539284818\H,0,1.7733558421,-1.753
 3558421,-4.9232597785\H,0,0.8905568758,-0.8705568758,-7.0425276922\H,0
 ,-0.8705565046,0.8905565046,-7.042527775\C,0,-0.9848184961,1.004818496
 1,0.0099998782\C,0,-0.5044883957,0.5244883957,1.2340295553\C,0,1.00481
 85643,-0.9848185643,0.0099998696\C,0,0.5244885146,-0.5044885146,1.2340
 295261\H,0,-1.7524699697,1.7724699697,0.0099999205\H,0,1.772468921,-1.
 752468921,0.0099999641\C,0,-0.9844683048,1.0044683048,2.4733171385\C,0
 ,-0.5039477114,0.5239477114,3.681276331\C,0,1.0044684211,-0.9844684211
 ,2.4733170835\C,0,0.5239479079,-0.5039479079,3.6812763217\H,0,-1.75218
 65527,1.7721865527,2.4739285326\H,0,1.7721858092,-1.7521858092,2.47392
 83796\C,0,-0.9861245177,1.0061245177,4.9435920588\C,0,-0.4963209372,0.
 5163209372,6.116356633\C,0,1.0061247659,-0.9861247659,4.9435919377\C,0
 ,0.5163212637,-0.4963212637,6.1163566075\H,0,-1.7533556504,1.773355650
 4,4.9432601504\H,0,-0.8705567426,0.8905567426,7.0625274368\H,0,0.89055
 70967,-0.8705570967,7.0625272142\H,0,1.7733555414,-1.7533555414,4.9432
 599297\C,0,7.4960521524,0.5239478476,-3.6612755801\C,0,8.5239480325,-0
 .5039480325,-3.6612755629\C,0,7.0138751537,1.0061248463,-4.9235927708\
 C,0,9.0061250889,-0.9861250889,-4.9235926697\C,0,7.5036786493,0.516321
 3507,-6.096356521\C,0,8.5163216812,-0.4963216812,-6.0963564796\C,0,7.0
 155315689,1.0044684311,-2.4533174875\C,0,7.495511574,0.524488426,-1.21
 40288145\C,0,9.0044685359,-0.9844685359,-2.4533173917\C,0,8.5244885437
 ,-0.5044885437,-1.2140288362\H,0,6.2466440333,1.7733559667,-4.92326004
 59\H,0,6.2478133187,1.7721866813,-2.4539285815\H,0,9.7721859268,-1.752
 1859268,-2.4539284818\H,0,9.7733558421,-1.7533558421,-4.9232597785\H,0
 ,8.8905568758,-0.8705568758,-7.0425276922\H,0,7.1294434954,0.890556504
 6,-7.042527775\C,0,7.0151815039,1.0048184961,0.0099998782\C,0,7.495511
 6043,0.5244883957,1.2340295553\C,0,9.0048185643,-0.9848185643,0.009999
 8696\C,0,8.5244885146,-0.5044885146,1.2340295261\H,0,6.2475300303,1.77
 24699697,0.0099999205\H,0,9.772468921,-1.752468921,0.0099999641\C,0,7.
 0155316952,1.0044683048,2.4733171385\C,0,7.4960522886,0.5239477114,3.6
 81276331\C,0,9.0044684211,-0.9844684211,2.4733170835\C,0,8.5239479079,
 -0.5039479079,3.6812763217\H,0,6.2478134473,1.7721865527,2.4739285326\
 H,0,9.7721858092,-1.7521858092,2.4739283796\C,0,7.0138754823,1.0061245
 177,4.9435920588\C,0,7.5036790628,0.5163209372,6.116356633\C,0,9.00612
 47659,-0.9861247659,4.9435919377\C,0,8.5163212637,-0.4963212637,6.1163
 566075\H,0,6.2466443496,1.7733556504,4.9432601504\H,0,7.1294432574,0.8
 905567426,7.0625274368\H,0,8.8905570967,-0.8705570967,7.0625272142\H,0
 ,9.7733555414,-1.7533555414,4.9432599297\\Version=Fujitsu-Arm-G16RevC.
 01\State=1-A'\HF=-847.0198415\RMSD=3.186e-09\Dipole=0.0000189,-0.00001
 87,0.\Quadrupole=-7.8783043,-6.5002268,14.3785311,-18.3248264,0.,0.\PG
 =CS [SG(C4H4),X(C40H24)]\\@


 SIC AS THE CAWSE OF EWERY THING IS, SIC WILBE THE EFFECT.
 -- PROVERBS AND REASONS OF THE YEAR 1585
           AS REPRINTED IN PAISLEY MAGAZINE 1828.
 Job cpu time:       0 days  2 hours 46 minutes 16.3 seconds.
 Elapsed time:       0 days  0 hours  4 minutes 26.4 seconds.
 File lengths (MBytes):  RWF=    718 Int=      0 D2E=      0 Chk=    208 Scr=      1
 Normal termination of Gaussian 16 at Wed Sep 27 17:15:48 2023.
