 Entering Gaussian System, Link 0=g16
 Initial command:
 /home/center/opt/aarch64/apps/gaussian16/c01/g16/l1.exe "/data/tmp/Gtmp/1006939/Gau-51.inp" -scrdir="/data/tmp/Gtmp/1006939/"
 Entering Link 1 = /home/center/opt/aarch64/apps/gaussian16/c01/g16/l1.exe PID=        52.
  
 Copyright (c) 1988-2019, Gaussian, Inc.  All Rights Reserved.
  
 This is part of the Gaussian(R) 16 program.  It is based on
 the Gaussian(R) 09 system (copyright 2009, Gaussian, Inc.),
 the Gaussian(R) 03 system (copyright 2003, Gaussian, Inc.),
 the Gaussian(R) 98 system (copyright 1998, Gaussian, Inc.),
 the Gaussian(R) 94 system (copyright 1995, Gaussian, Inc.),
 the Gaussian 92(TM) system (copyright 1992, Gaussian, Inc.),
 the Gaussian 90(TM) system (copyright 1990, Gaussian, Inc.),
 the Gaussian 88(TM) system (copyright 1988, Gaussian, Inc.),
 the Gaussian 86(TM) system (copyright 1986, Carnegie Mellon
 University), and the Gaussian 82(TM) system (copyright 1983,
 Carnegie Mellon University). Gaussian is a federally registered
 trademark of Gaussian, Inc.
  
 This software contains proprietary and confidential information,
 including trade secrets, belonging to Gaussian, Inc.
  
 This software is provided under written license and may be
 used, copied, transmitted, or stored only in accord with that
 written license.
  
 The following legend is applicable only to US Government
 contracts under FAR:
  
                    RESTRICTED RIGHTS LEGEND
  
 Use, reproduction and disclosure by the US Government is
 subject to restrictions as set forth in subparagraphs (a)
 and (c) of the Commercial Computer Software - Restricted
 Rights clause in FAR 52.227-19.
  
 Gaussian, Inc.
 340 Quinnipiac St., Bldg. 40, Wallingford CT 06492
  
  
 ---------------------------------------------------------------
 Warning -- This program may not be used in any manner that
 competes with the business of Gaussian, Inc. or will provide
 assistance to any competitor of Gaussian, Inc.  The licensee
 of this program is prohibited from giving any competitor of
 Gaussian, Inc. access to this program.  By using this program,
 the user acknowledges that Gaussian, Inc. is engaged in the
 business of creating and licensing software in the field of
 computational chemistry and represents and warrants to the
 licensee that it is not a competitor of Gaussian, Inc. and that
 it will not use this program in any manner prohibited above.
 ---------------------------------------------------------------
  

 Cite this work as:
 Gaussian 16, Revision C.01,
 M. J. Frisch, G. W. Trucks, H. B. Schlegel, G. E. Scuseria, 
 M. A. Robb, J. R. Cheeseman, G. Scalmani, V. Barone, 
 G. A. Petersson, H. Nakatsuji, X. Li, M. Caricato, A. V. Marenich, 
 J. Bloino, B. G. Janesko, R. Gomperts, B. Mennucci, H. P. Hratchian, 
 J. V. Ortiz, A. F. Izmaylov, J. L. Sonnenberg, D. Williams-Young, 
 F. Ding, F. Lipparini, F. Egidi, J. Goings, B. Peng, A. Petrone, 
 T. Henderson, D. Ranasinghe, V. G. Zakrzewski, J. Gao, N. Rega, 
 G. Zheng, W. Liang, M. Hada, M. Ehara, K. Toyota, R. Fukuda, 
 J. Hasegawa, M. Ishida, T. Nakajima, Y. Honda, O. Kitao, H. Nakai, 
 T. Vreven, K. Throssell, J. A. Montgomery, Jr., J. E. Peralta, 
 F. Ogliaro, M. J. Bearpark, J. J. Heyd, E. N. Brothers, K. N. Kudin, 
 V. N. Staroverov, T. A. Keith, R. Kobayashi, J. Normand, 
 K. Raghavachari, A. P. Rendell, J. C. Burant, S. S. Iyengar, 
 J. Tomasi, M. Cossi, J. M. Millam, M. Klene, C. Adamo, R. Cammi, 
 J. W. Ochterski, R. L. Martin, K. Morokuma, O. Farkas, 
 J. B. Foresman, and D. J. Fox, Gaussian, Inc., Wallingford CT, 2019.
 
 ************************************************
 Gaussian 16:  Fujitsu-Arm-G16RevC.01  3-Jul-2019
                   27-Sep-2023 
 ************************************************
 %mem=24GB
 %nproc=42
 Will use up to   42 processors via shared memory.
 -------------------------------------------------------------
 #P TEST b3lyp/6-311G** EmpiricalDispersion=GD3 counterpoise=2
 -------------------------------------------------------------
 1/38=1,62=2,172=1/1;
 2/12=2,17=6,18=5,40=1/2;
 1/38=1,53=2,62=2,63=1/22;
 3/5=4,6=6,7=101,11=2,25=1,30=1,74=-5,124=31/1,2,3;
 4//1;
 5/5=2,38=5/2;
 6/7=2,8=2,9=2,10=2,28=1/1;
 1/53=2,62=2,63=1/22;
 3/5=7,6=11,7=101,11=2,25=1,30=1,74=-5,82=7,124=31/1,2,3;
 4//1;
 5/5=2,38=5/2;
 6/7=2,8=2,9=2,10=2,28=1/1;
 1/53=2,62=2,63=1/22(-4);
 99/5=1,9=1/99;
 Leave Link    1 at Wed Sep 27 16:37:39 2023, MaxMem=  3221225472 cpu:               1.1 elap:               0.2
 (Enter /home/center/opt/aarch64/apps/gaussian16/c01/g16/l101.exe)
 ----------------------------
 pentacene_A1=0_A2=0_A3=45_t1
 ----------------------------
 Symbolic Z-matrix:
 Charge =  0 Multiplicity = 1 in supermolecule
 Charge =  0 Multiplicity = 1 in fragment      1.
 Charge =  0 Multiplicity = 1 in fragment      2.
 C(Fragment=1)        -0.50395   0.52395  -3.66128 
 C(Fragment=1)         0.52395  -0.50395  -3.66128 
 C(Fragment=1)        -0.98612   1.00612  -4.92359 
 C(Fragment=1)         1.00613  -0.98613  -4.92359 
 C(Fragment=1)        -0.49632   0.51632  -6.09636 
 C(Fragment=1)         0.51632  -0.49632  -6.09636 
 C(Fragment=1)        -0.98447   1.00447  -2.45332 
 C(Fragment=1)        -0.50449   0.52449  -1.21403 
 C(Fragment=1)         1.00447  -0.98447  -2.45332 
 C(Fragment=1)         0.52449  -0.50449  -1.21403 
 H(Fragment=1)        -1.75336   1.77336  -4.92326 
 H(Fragment=1)        -1.75219   1.77219  -2.45393 
 H(Fragment=1)         1.77219  -1.75219  -2.45393 
 H(Fragment=1)         1.77336  -1.75336  -4.92326 
 H(Fragment=1)         0.89056  -0.87056  -7.04253 
 H(Fragment=1)        -0.87056   0.89056  -7.04253 
 C(Fragment=1)        -0.98482   1.00482   0.01 
 C(Fragment=1)        -0.50449   0.52449   1.23403 
 C(Fragment=1)         1.00482  -0.98482   0.01 
 C(Fragment=1)         0.52449  -0.50449   1.23403 
 H(Fragment=1)        -1.75247   1.77247   0.01 
 H(Fragment=1)         1.77247  -1.75247   0.01 
 C(Fragment=1)        -0.98447   1.00447   2.47332 
 C(Fragment=1)        -0.50395   0.52395   3.68128 
 C(Fragment=1)         1.00447  -0.98447   2.47332 
 C(Fragment=1)         0.52395  -0.50395   3.68128 
 H(Fragment=1)        -1.75219   1.77219   2.47393 
 H(Fragment=1)         1.77219  -1.75219   2.47393 
 C(Fragment=1)        -0.98612   1.00612   4.94359 
 C(Fragment=1)        -0.49632   0.51632   6.11636 
 C(Fragment=1)         1.00612  -0.98612   4.94359 
 C(Fragment=1)         0.51632  -0.49632   6.11636 
 H(Fragment=1)        -1.75336   1.77336   4.94326 
 H(Fragment=1)        -0.87056   0.89056   7.06253 
 H(Fragment=1)         0.89056  -0.87056   7.06253 
 H(Fragment=1)         1.77336  -1.75336   4.94326 
 C(Fragment=2)         3.27395   5.77395  -3.66128 
 C(Fragment=2)         2.24605   4.74605  -3.66128 
 C(Fragment=2)         3.75612   6.25612  -4.92359 
 C(Fragment=2)         1.76387   4.26387  -4.92359 
 C(Fragment=2)         3.26632   5.76632  -6.09636 
 C(Fragment=2)         2.25368   4.75368  -6.09636 
 C(Fragment=2)         3.75447   6.25447  -2.45332 
 C(Fragment=2)         3.27449   5.77449  -1.21403 
 C(Fragment=2)         1.76553   4.26553  -2.45332 
 C(Fragment=2)         2.24551   4.74551  -1.21403 
 H(Fragment=2)         4.52336   7.02336  -4.92326 
 H(Fragment=2)         4.52219   7.02219  -2.45393 
 H(Fragment=2)         0.99781   3.49781  -2.45393 
 H(Fragment=2)         0.99664   3.49664  -4.92326 
 H(Fragment=2)         1.87944   4.37944  -7.04253 
 H(Fragment=2)         3.64056   6.14056  -7.04253 
 C(Fragment=2)         3.75482   6.25482   0.01 
 C(Fragment=2)         3.27449   5.77449   1.23403 
 C(Fragment=2)         1.76518   4.26518   0.01 
 C(Fragment=2)         2.24551   4.74551   1.23403 
 H(Fragment=2)         4.52247   7.02247   0.01 
 H(Fragment=2)         0.99753   3.49753   0.01 
 C(Fragment=2)         3.75447   6.25447   2.47332 
 C(Fragment=2)         3.27395   5.77395   3.68128 
 C(Fragment=2)         1.76553   4.26553   2.47332 
 C(Fragment=2)         2.24605   4.74605   3.68128 
 H(Fragment=2)         4.52219   7.02219   2.47393 
 H(Fragment=2)         0.99781   3.49781   2.47393 
 C(Fragment=2)         3.75612   6.25612   4.94359 
 C(Fragment=2)         3.26632   5.76632   6.11636 
 C(Fragment=2)         1.76388   4.26388   4.94359 
 C(Fragment=2)         2.25368   4.75368   6.11636 
 H(Fragment=2)         4.52336   7.02336   4.94326 
 H(Fragment=2)         3.64056   6.14056   7.06253 
 H(Fragment=2)         1.87944   4.37944   7.06253 
 H(Fragment=2)         0.99664   3.49664   4.94326 
 
 ITRead=  0  0  0  0  0  0  0  0  0  0  0  0  0  0  0  0  0  0  0  0
 ITRead=  0  0  0  0  0  0  0  0  0  0  0  0  0  0  0  0  0  0  0  0
 ITRead=  0  0  0  0  0  0  0  0  0  0  0  0  0  0  0  0  0  0  0  0
 ITRead=  0  0  0  0  0  0  0  0  0  0  0  0
 MicOpt= -1 -1 -1 -1 -1 -1 -1 -1 -1 -1 -1 -1 -1 -1 -1 -1 -1 -1 -1 -1
 MicOpt= -1 -1 -1 -1 -1 -1 -1 -1 -1 -1 -1 -1 -1 -1 -1 -1 -1 -1 -1 -1
 MicOpt= -1 -1 -1 -1 -1 -1 -1 -1 -1 -1 -1 -1 -1 -1 -1 -1 -1 -1 -1 -1
 MicOpt= -1 -1 -1 -1 -1 -1 -1 -1 -1 -1 -1 -1
 NAtoms=     72 NQM=       72 NQMF=       0 NMMI=      0 NMMIF=      0
                NMic=       0 NMicF=      0.
                    Isotopes and Nuclear Properties:
 (Nuclear quadrupole moments (NQMom) in fm**2, nuclear magnetic moments (NMagM)
  in nuclear magnetons)

  Atom         1           2           3           4           5           6           7           8           9          10
 IAtWgt=          12          12          12          12          12          12          12          12          12          12
 AtmWgt=  12.0000000  12.0000000  12.0000000  12.0000000  12.0000000  12.0000000  12.0000000  12.0000000  12.0000000  12.0000000
 NucSpn=           0           0           0           0           0           0           0           0           0           0
 AtZEff=   0.0000000   0.0000000   0.0000000   0.0000000   0.0000000   0.0000000   0.0000000   0.0000000   0.0000000   0.0000000
 NQMom=    0.0000000   0.0000000   0.0000000   0.0000000   0.0000000   0.0000000   0.0000000   0.0000000   0.0000000   0.0000000
 NMagM=    0.0000000   0.0000000   0.0000000   0.0000000   0.0000000   0.0000000   0.0000000   0.0000000   0.0000000   0.0000000
 AtZNuc=   6.0000000   6.0000000   6.0000000   6.0000000   6.0000000   6.0000000   6.0000000   6.0000000   6.0000000   6.0000000

  Atom        11          12          13          14          15          16          17          18          19          20
 IAtWgt=           1           1           1           1           1           1          12          12          12          12
 AtmWgt=   1.0078250   1.0078250   1.0078250   1.0078250   1.0078250   1.0078250  12.0000000  12.0000000  12.0000000  12.0000000
 NucSpn=           1           1           1           1           1           1           0           0           0           0
 AtZEff=   0.0000000   0.0000000   0.0000000   0.0000000   0.0000000   0.0000000   0.0000000   0.0000000   0.0000000   0.0000000
 NQMom=    0.0000000   0.0000000   0.0000000   0.0000000   0.0000000   0.0000000   0.0000000   0.0000000   0.0000000   0.0000000
 NMagM=    2.7928460   2.7928460   2.7928460   2.7928460   2.7928460   2.7928460   0.0000000   0.0000000   0.0000000   0.0000000
 AtZNuc=   1.0000000   1.0000000   1.0000000   1.0000000   1.0000000   1.0000000   6.0000000   6.0000000   6.0000000   6.0000000

  Atom        21          22          23          24          25          26          27          28          29          30
 IAtWgt=           1           1          12          12          12          12           1           1          12          12
 AtmWgt=   1.0078250   1.0078250  12.0000000  12.0000000  12.0000000  12.0000000   1.0078250   1.0078250  12.0000000  12.0000000
 NucSpn=           1           1           0           0           0           0           1           1           0           0
 AtZEff=   0.0000000   0.0000000   0.0000000   0.0000000   0.0000000   0.0000000   0.0000000   0.0000000   0.0000000   0.0000000
 NQMom=    0.0000000   0.0000000   0.0000000   0.0000000   0.0000000   0.0000000   0.0000000   0.0000000   0.0000000   0.0000000
 NMagM=    2.7928460   2.7928460   0.0000000   0.0000000   0.0000000   0.0000000   2.7928460   2.7928460   0.0000000   0.0000000
 AtZNuc=   1.0000000   1.0000000   6.0000000   6.0000000   6.0000000   6.0000000   1.0000000   1.0000000   6.0000000   6.0000000

  Atom        31          32          33          34          35          36          37          38          39          40
 IAtWgt=          12          12           1           1           1           1          12          12          12          12
 AtmWgt=  12.0000000  12.0000000   1.0078250   1.0078250   1.0078250   1.0078250  12.0000000  12.0000000  12.0000000  12.0000000
 NucSpn=           0           0           1           1           1           1           0           0           0           0
 AtZEff=   0.0000000   0.0000000   0.0000000   0.0000000   0.0000000   0.0000000   0.0000000   0.0000000   0.0000000   0.0000000
 NQMom=    0.0000000   0.0000000   0.0000000   0.0000000   0.0000000   0.0000000   0.0000000   0.0000000   0.0000000   0.0000000
 NMagM=    0.0000000   0.0000000   2.7928460   2.7928460   2.7928460   2.7928460   0.0000000   0.0000000   0.0000000   0.0000000
 AtZNuc=   6.0000000   6.0000000   1.0000000   1.0000000   1.0000000   1.0000000   6.0000000   6.0000000   6.0000000   6.0000000

  Atom        41          42          43          44          45          46          47          48          49          50
 IAtWgt=          12          12          12          12          12          12           1           1           1           1
 AtmWgt=  12.0000000  12.0000000  12.0000000  12.0000000  12.0000000  12.0000000   1.0078250   1.0078250   1.0078250   1.0078250
 NucSpn=           0           0           0           0           0           0           1           1           1           1
 AtZEff=   0.0000000   0.0000000   0.0000000   0.0000000   0.0000000   0.0000000   0.0000000   0.0000000   0.0000000   0.0000000
 NQMom=    0.0000000   0.0000000   0.0000000   0.0000000   0.0000000   0.0000000   0.0000000   0.0000000   0.0000000   0.0000000
 NMagM=    0.0000000   0.0000000   0.0000000   0.0000000   0.0000000   0.0000000   2.7928460   2.7928460   2.7928460   2.7928460
 AtZNuc=   6.0000000   6.0000000   6.0000000   6.0000000   6.0000000   6.0000000   1.0000000   1.0000000   1.0000000   1.0000000

  Atom        51          52          53          54          55          56          57          58          59          60
 IAtWgt=           1           1          12          12          12          12           1           1          12          12
 AtmWgt=   1.0078250   1.0078250  12.0000000  12.0000000  12.0000000  12.0000000   1.0078250   1.0078250  12.0000000  12.0000000
 NucSpn=           1           1           0           0           0           0           1           1           0           0
 AtZEff=   0.0000000   0.0000000   0.0000000   0.0000000   0.0000000   0.0000000   0.0000000   0.0000000   0.0000000   0.0000000
 NQMom=    0.0000000   0.0000000   0.0000000   0.0000000   0.0000000   0.0000000   0.0000000   0.0000000   0.0000000   0.0000000
 NMagM=    2.7928460   2.7928460   0.0000000   0.0000000   0.0000000   0.0000000   2.7928460   2.7928460   0.0000000   0.0000000
 AtZNuc=   1.0000000   1.0000000   6.0000000   6.0000000   6.0000000   6.0000000   1.0000000   1.0000000   6.0000000   6.0000000

  Atom        61          62          63          64          65          66          67          68          69          70
 IAtWgt=          12          12           1           1          12          12          12          12           1           1
 AtmWgt=  12.0000000  12.0000000   1.0078250   1.0078250  12.0000000  12.0000000  12.0000000  12.0000000   1.0078250   1.0078250
 NucSpn=           0           0           1           1           0           0           0           0           1           1
 AtZEff=   0.0000000   0.0000000   0.0000000   0.0000000   0.0000000   0.0000000   0.0000000   0.0000000   0.0000000   0.0000000
 NQMom=    0.0000000   0.0000000   0.0000000   0.0000000   0.0000000   0.0000000   0.0000000   0.0000000   0.0000000   0.0000000
 NMagM=    0.0000000   0.0000000   2.7928460   2.7928460   0.0000000   0.0000000   0.0000000   0.0000000   2.7928460   2.7928460
 AtZNuc=   6.0000000   6.0000000   1.0000000   1.0000000   6.0000000   6.0000000   6.0000000   6.0000000   1.0000000   1.0000000

  Atom        71          72
 IAtWgt=           1           1
 AtmWgt=   1.0078250   1.0078250
 NucSpn=           1           1
 AtZEff=   0.0000000   0.0000000
 NQMom=    0.0000000   0.0000000
 NMagM=    2.7928460   2.7928460
 AtZNuc=   1.0000000   1.0000000
 Leave Link  101 at Wed Sep 27 16:37:42 2023, MaxMem=  3221225472 cpu:               1.0 elap:               0.1
 (Enter /home/center/opt/aarch64/apps/gaussian16/c01/g16/l202.exe)
 Stoichiometry    C44H28
 Framework group  CS[SG(C4H4),X(C40H24)]
 Deg. of freedom   109
 Full point group                 CS      NOp   2
 Largest Abelian subgroup         CS      NOp   2
 Largest concise Abelian subgroup CS      NOp   2
                         Standard orientation:                         
 ---------------------------------------------------------------------
 Center     Atomic      Atomic             Coordinates (Angstroms)
 Number     Number       Type             X           Y           Z
 ---------------------------------------------------------------------
      1          6           0       -0.157051   -2.828427    3.671276
      2          6           0       -1.610716   -2.828427    3.671276
      3          6           0        0.524850   -2.828427    4.933593
      4          6           0       -2.292617   -2.828427    4.933593
      5          6           0       -0.167837   -2.828427    6.106357
      6          6           0       -1.599930   -2.828427    6.106357
      7          6           0        0.522507   -2.828427    2.463318
      8          6           0       -0.156287   -2.828427    1.224029
      9          6           0       -2.290274   -2.828427    2.463317
     10          6           0       -1.611480   -2.828427    1.224029
     11          1           0        1.609878   -2.828427    4.933260
     12          1           0        1.608225   -2.828427    2.463929
     13          1           0       -3.375991   -2.828427    2.463929
     14          1           0       -3.377645   -2.828427    4.933260
     15          1           0       -2.129179   -2.828427    7.052528
     16          1           0        0.361412   -2.828427    7.052528
     17          6           0        0.523002   -2.828427    0.000000
     18          6           0       -0.156287   -2.828427   -1.224029
     19          6           0       -2.290769   -2.828427    0.000000
     20          6           0       -1.611480   -2.828427   -1.224029
     21          1           0        1.608626   -2.828427    0.000000
     22          1           0       -3.376391   -2.828427    0.000000
     23          6           0        0.522507   -2.828427   -2.463318
     24          6           0       -0.157051   -2.828427   -3.671276
     25          6           0       -2.290274   -2.828427   -2.463317
     26          6           0       -1.610716   -2.828427   -3.671276
     27          1           0        1.608225   -2.828427   -2.463929
     28          1           0       -3.375991   -2.828427   -2.463929
     29          6           0        0.524850   -2.828427   -4.933593
     30          6           0       -0.167837   -2.828427   -6.106357
     31          6           0       -2.292617   -2.828427   -4.933593
     32          6           0       -1.599930   -2.828427   -6.106357
     33          1           0        1.609878   -2.828427   -4.933260
     34          1           0        0.361412   -2.828427   -7.052528
     35          1           0       -2.129179   -2.828427   -7.052528
     36          1           0       -3.377645   -2.828427   -4.933260
     37          6           0        0.883884    3.555259    3.671276
     38          6           0        0.883884    2.101595    3.671276
     39          6           0        0.883884    4.237160    4.933593
     40          6           0        0.883884    1.419694    4.933593
     41          6           0        0.883884    3.544474    6.106357
     42          6           0        0.883884    2.112380    6.106357
     43          6           0        0.883884    4.234818    2.463318
     44          6           0        0.883884    3.556024    1.224029
     45          6           0        0.883884    1.422036    2.463317
     46          6           0        0.883884    2.100830    1.224029
     47          1           0        0.883884    5.322189    4.933260
     48          1           0        0.883884    5.320535    2.463929
     49          1           0        0.883884    0.336320    2.463929
     50          1           0        0.883884    0.334665    4.933260
     51          1           0        0.883884    1.583132    7.052528
     52          1           0        0.883884    4.073722    7.052528
     53          6           0        0.883884    4.235313    0.000000
     54          6           0        0.883884    3.556024   -1.224029
     55          6           0        0.883884    1.421541    0.000000
     56          6           0        0.883884    2.100830   -1.224029
     57          1           0        0.883884    5.320936    0.000000
     58          1           0        0.883884    0.335920    0.000000
     59          6           0        0.883884    4.234818   -2.463318
     60          6           0        0.883884    3.555259   -3.671276
     61          6           0        0.883884    1.422036   -2.463317
     62          6           0        0.883884    2.101595   -3.671276
     63          1           0        0.883884    5.320535   -2.463929
     64          1           0        0.883884    0.336320   -2.463929
     65          6           0        0.883884    4.237160   -4.933593
     66          6           0        0.883884    3.544474   -6.106357
     67          6           0        0.883884    1.419694   -4.933593
     68          6           0        0.883884    2.112380   -6.106357
     69          1           0        0.883884    5.322189   -4.933260
     70          1           0        0.883884    4.073722   -7.052528
     71          1           0        0.883884    1.583132   -7.052528
     72          1           0        0.883884    0.334665   -4.933260
 ---------------------------------------------------------------------
 Rotational constants (GHZ):           0.0894757           0.0563744           0.0364921
 Leave Link  202 at Wed Sep 27 16:37:44 2023, MaxMem=  3221225472 cpu:               1.3 elap:               0.1
 (Enter /home/center/opt/aarch64/apps/gaussian16/c01/g16/l122.exe)
 Counterpoise: doing full-system calculation.
 Leave Link  122 at Wed Sep 27 16:37:46 2023, MaxMem=  3221225472 cpu:               0.4 elap:               0.0
 (Enter /home/center/opt/aarch64/apps/gaussian16/c01/g16/l301.exe)
 Standard basis: 6-311G(d,p) (5D, 7F)
 Ernie: Thresh=  0.10000D-02 Tol=  0.10000D-05 Strict=F.
 There are   528 symmetry adapted cartesian basis functions of A'  symmetry.
 There are   476 symmetry adapted cartesian basis functions of A"  symmetry.
 There are   504 symmetry adapted basis functions of A'  symmetry.
 There are   456 symmetry adapted basis functions of A"  symmetry.
   960 basis functions,  1632 primitive gaussians,  1004 cartesian basis functions
   146 alpha electrons      146 beta electrons
       nuclear repulsion energy      4507.5789590286 Hartrees.
 IExCor=  402 DFT=T Ex+Corr=B3LYP ExCW=0 ScaHFX=  0.200000
 ScaDFX=  0.800000  0.720000  1.000000  0.810000 ScalE2=  1.000000  1.000000
 IRadAn=      5 IRanWt=     -1 IRanGd=            0 ICorTp=0 IEmpDi=131
 NAtoms=   72 NActive=   72 NUniq=   40 SFac= 3.24D+00 NAtFMM=   60 NAOKFM=T Big=F
 Integral buffers will be    131072 words long.
 Raffenetti 2 integral format.
 Two-electron integral symmetry is turned on.
 R6Disp:  Grimme-D3 Dispersion energy=       -0.0720398205 Hartrees.
 Nuclear repulsion after empirical dispersion term =     4507.5069192081 Hartrees.
 Leave Link  301 at Wed Sep 27 16:37:49 2023, MaxMem=  3221225472 cpu:               2.0 elap:               0.1
 (Enter /home/center/opt/aarch64/apps/gaussian16/c01/g16/l302.exe)
 NPDir=0 NMtPBC=     1 NCelOv=     1 NCel=       1 NClECP=     1 NCelD=      1
         NCelK=      1 NCelE2=     1 NClLst=     1 CellRange=     0.0.
 One-electron integrals computed using PRISM.
 One-electron integral symmetry used in STVInt
 NBasis=   960 RedAO= T EigKep=  3.89D-05  NBF=   504   456
 NBsUse=   960 1.00D-06 EigRej= -1.00D+00 NBFU=   504   456
 Precomputing XC quadrature grid using
 IXCGrd= 4 IRadAn=           5 IRanWt=          -1 IRanGd=           0 AccXCQ= 0.00D+00.
 Generated NRdTot=       0 NPtTot=           0 NUsed=           0 NTot=          32
 NSgBfM=   987   987   987   987   987 MxSgAt=    72 MxSgA2=    72.
 Leave Link  302 at Wed Sep 27 16:37:53 2023, MaxMem=  3221225472 cpu:              64.3 elap:               1.9
 (Enter /home/center/opt/aarch64/apps/gaussian16/c01/g16/l303.exe)
 DipDrv:  MaxL=1.
 Leave Link  303 at Wed Sep 27 16:37:56 2023, MaxMem=  3221225472 cpu:              14.0 elap:               0.4
 (Enter /home/center/opt/aarch64/apps/gaussian16/c01/g16/l401.exe)
 ExpMin= 1.03D-01 ExpMax= 4.56D+03 ExpMxC= 6.82D+02 IAcc=3 IRadAn=         5 AccDes= 0.00D+00
 Harris functional with IExCor=  402 and IRadAn=       5 diagonalized for initial guess.
 HarFok:  IExCor=  402 AccDes= 0.00D+00 IRadAn=         5 IDoV= 1 UseB2=F ITyADJ=14
 ICtDFT=  3500011 ScaDFX=  1.000000  1.000000  1.000000  1.000000
 FoFCou: FMM=F IPFlag=           0 FMFlag=      100000 FMFlg1=        2000
         NFxFlg=           0 DoJE=T BraDBF=F KetDBF=T FulRan=T
         wScrn=  0.000000 ICntrl=       500 IOpCl=  0 I1Cent=   200000004 NGrid=           0
         NMat0=    1 NMatS0=      1 NMatT0=    0 NMatD0=    1 NMtDS0=    0 NMtDT0=    0
 Petite list used in FoFCou.
 Harris En= -1694.13604509804    
 JPrj=0 DoOrth=F DoCkMO=F.
 Initial guess orbital symmetries:
       Occupied  (A") (A') (A") (A') (A') (A") (A') (A") (A") (A')
                 (A") (A') (A") (A') (A") (A') (A") (A') (A') (A")
                 (A") (A') (A") (A') (A') (A') (A') (A') (A") (A")
                 (A') (A') (A") (A') (A") (A') (A") (A') (A") (A')
                 (A') (A") (A') (A") (A') (A') (A") (A") (A') (A')
                 (A") (A") (A') (A') (A') (A') (A") (A") (A') (A')
                 (A") (A") (A") (A") (A') (A') (A') (A') (A") (A")
                 (A") (A") (A') (A') (A") (A") (A') (A') (A') (A')
                 (A') (A') (A") (A") (A") (A") (A") (A") (A') (A')
                 (A') (A') (A") (A") (A') (A') (A') (A') (A") (A")
                 (A') (A') (A") (A") (A") (A") (A') (A') (A') (A')
                 (A") (A") (A') (A') (A") (A") (A') (A') (A") (A")
                 (A") (A") (A') (A') (A') (A') (A") (A") (A') (A')
                 (A") (A") (A') (A') (A") (A") (A') (A') (A') (A')
                 (A") (A") (A") (A") (A') (A')
       Virtual   (A') (A') (A") (A") (A") (A") (A') (A') (A') (A')
                 (A") (A") (A') (A') (A") (A") (A') (A") (A') (A')
                 (A') (A') (A") (A') (A") (A') (A") (A") (A') (A')
                 (A") (A') (A") (A") (A') (A") (A') (A") (A') (A")
                 (A') (A") (A') (A") (A') (A') (A") (A') (A') (A')
                 (A') (A") (A') (A") (A') (A') (A') (A") (A") (A')
                 (A") (A") (A") (A") (A') (A') (A") (A") (A') (A")
                 (A') (A") (A') (A') (A") (A') (A") (A") (A') (A")
                 (A') (A') (A') (A") (A') (A') (A") (A') (A") (A')
                 (A") (A") (A') (A') (A") (A') (A") (A') (A") (A")
                 (A") (A') (A") (A') (A") (A') (A') (A") (A') (A')
                 (A') (A') (A') (A") (A') (A") (A') (A") (A') (A")
                 (A') (A') (A") (A") (A") (A") (A') (A') (A") (A")
                 (A') (A") (A") (A') (A") (A") (A') (A') (A") (A")
                 (A') (A') (A') (A') (A') (A') (A") (A') (A') (A")
                 (A') (A') (A") (A') (A") (A') (A") (A") (A') (A")
                 (A') (A") (A') (A") (A") (A') (A") (A') (A') (A")
                 (A") (A') (A") (A") (A') (A') (A') (A") (A') (A")
                 (A') (A") (A") (A') (A') (A") (A') (A') (A') (A')
                 (A") (A') (A") (A") (A') (A") (A') (A') (A") (A")
                 (A") (A') (A') (A") (A') (A') (A") (A') (A') (A")
                 (A") (A') (A") (A") (A') (A') (A") (A") (A") (A')
                 (A') (A") (A") (A') (A") (A") (A') (A') (A') (A')
                 (A") (A') (A') (A") (A") (A') (A') (A") (A") (A')
                 (A") (A") (A') (A') (A") (A') (A') (A") (A') (A")
                 (A') (A") (A") (A') (A") (A') (A') (A") (A") (A')
                 (A') (A') (A") (A') (A") (A") (A") (A') (A') (A")
                 (A") (A') (A") (A") (A") (A') (A') (A') (A") (A")
                 (A") (A') (A') (A') (A') (A') (A") (A') (A") (A")
                 (A') (A') (A") (A') (A') (A") (A") (A") (A") (A')
                 (A") (A") (A') (A") (A') (A') (A") (A') (A') (A')
                 (A') (A") (A") (A') (A") (A") (A") (A') (A") (A')
                 (A') (A') (A") (A') (A') (A') (A") (A") (A') (A")
                 (A") (A") (A') (A") (A') (A') (A") (A') (A') (A")
                 (A") (A') (A') (A") (A") (A') (A") (A') (A") (A')
                 (A') (A') (A") (A") (A') (A') (A') (A") (A') (A")
                 (A') (A') (A') (A") (A') (A") (A") (A") (A") (A")
                 (A") (A") (A') (A") (A') (A') (A") (A') (A') (A')
                 (A") (A") (A') (A') (A') (A') (A') (A") (A') (A")
                 (A") (A') (A') (A") (A') (A') (A") (A") (A") (A")
                 (A') (A') (A") (A') (A") (A') (A') (A") (A") (A')
                 (A') (A') (A") (A") (A') (A') (A") (A') (A") (A')
                 (A') (A') (A') (A") (A') (A") (A') (A") (A') (A")
                 (A") (A") (A") (A') (A") (A") (A') (A') (A') (A")
                 (A") (A") (A') (A") (A') (A") (A') (A") (A') (A")
                 (A') (A') (A') (A') (A") (A') (A") (A') (A") (A")
                 (A") (A') (A") (A') (A') (A") (A") (A') (A") (A")
                 (A') (A') (A") (A') (A") (A") (A') (A") (A') (A')
                 (A") (A') (A') (A') (A") (A') (A") (A") (A") (A')
                 (A") (A') (A") (A") (A") (A") (A") (A") (A') (A')
                 (A') (A") (A') (A") (A') (A') (A') (A') (A') (A")
                 (A") (A') (A') (A') (A") (A") (A") (A") (A') (A')
                 (A") (A') (A") (A') (A") (A") (A') (A') (A") (A")
                 (A') (A') (A') (A') (A") (A") (A') (A") (A") (A')
                 (A") (A") (A') (A') (A') (A') (A") (A") (A") (A")
                 (A') (A") (A') (A") (A") (A") (A') (A') (A') (A')
                 (A') (A") (A') (A") (A') (A") (A") (A') (A') (A")
                 (A') (A") (A") (A") (A') (A') (A") (A') (A") (A')
                 (A') (A') (A') (A') (A") (A") (A") (A') (A') (A")
                 (A') (A') (A') (A") (A') (A') (A') (A") (A") (A")
                 (A") (A') (A") (A') (A') (A") (A') (A") (A") (A")
                 (A') (A') (A") (A') (A") (A') (A') (A') (A") (A")
                 (A") (A') (A") (A") (A') (A') (A") (A') (A") (A')
                 (A') (A') (A') (A") (A') (A') (A") (A') (A") (A")
                 (A") (A') (A") (A") (A') (A") (A") (A") (A') (A')
                 (A') (A') (A') (A') (A') (A") (A") (A') (A") (A')
                 (A') (A") (A") (A") (A') (A") (A') (A') (A') (A")
                 (A') (A") (A") (A') (A") (A') (A") (A") (A') (A')
                 (A") (A') (A") (A') (A') (A') (A") (A") (A") (A")
                 (A') (A') (A') (A") (A') (A') (A") (A") (A") (A')
                 (A') (A') (A") (A") (A') (A") (A') (A") (A') (A")
                 (A') (A") (A") (A") (A') (A') (A') (A') (A") (A")
                 (A') (A') (A") (A") (A') (A') (A") (A') (A') (A")
                 (A') (A") (A') (A") (A") (A') (A") (A') (A') (A')
                 (A") (A") (A') (A') (A") (A") (A') (A') (A') (A')
                 (A") (A") (A') (A') (A") (A") (A') (A') (A") (A")
                 (A") (A") (A') (A') (A") (A") (A') (A") (A') (A")
                 (A') (A') (A") (A") (A') (A') (A') (A') (A") (A")
                 (A") (A") (A') (A') (A") (A") (A') (A') (A') (A')
                 (A") (A") (A") (A") (A') (A') (A') (A') (A") (A")
                 (A') (A') (A") (A") (A') (A') (A") (A") (A') (A')
                 (A') (A") (A') (A")
 The electronic state of the initial guess is 1-A'.
 Leave Link  401 at Wed Sep 27 16:38:00 2023, MaxMem=  3221225472 cpu:             102.3 elap:               2.6
 (Enter /home/center/opt/aarch64/apps/gaussian16/c01/g16/l502.exe)
 Integral symmetry usage will be decided dynamically.
 Closed shell SCF:
 Using DIIS extrapolation, IDIIS=  1040.
 NGot=  3221225472 LenX=  3219153746 LenY=  3218144726
 Requested convergence on RMS density matrix=1.00D-08 within 128 cycles.
 Requested convergence on MAX density matrix=1.00D-06.
 Requested convergence on             energy=1.00D-06.
 No special actions if energy rises.
 Fock matrices will be formed incrementally for  20 cycles.
 Integral accuracy reduced to 1.0D-05 until final iterations.

 Cycle   1  Pass 0  IDiag  1:
 FoFJK:  IHMeth= 1 ICntrl=       0 DoSepK=F KAlg= 0 I1Cent=           0 FoldK=F
 IRaf= 530000000 NMat=       1 IRICut=       1 DoRegI=T DoRafI=F ISym2E= 1 IDoP0=0 IntGTp=1.
 FoFCou: FMM=F IPFlag=           0 FMFlag=      100000 FMFlg1=        2000
         NFxFlg=           0 DoJE=F BraDBF=F KetDBF=F FulRan=T
         wScrn=  0.000000 ICntrl=         0 IOpCl=  0 I1Cent=           0 NGrid=           0
         NMat0=    1 NMatS0=      1 NMatT0=    0 NMatD0=    1 NMtDS0=    0 NMtDT0=    0
 Petite list used in FoFCou.
 E= -1693.15789983231    
 DIIS: error= 4.61D-02 at cycle   1 NSaved=   1.
 NSaved= 1 IEnMin= 1 EnMin= -1693.15789983231     IErMin= 1 ErrMin= 4.61D-02
 ErrMax= 4.61D-02  0.00D+00 EMaxC= 1.00D-01 BMatC= 9.05D-01 BMatP= 9.05D-01
 IDIUse=3 WtCom= 5.39D-01 WtEn= 4.61D-01
 Coeff-Com:  0.100D+01
 Coeff-En:   0.100D+01
 Coeff:      0.100D+01
 Gap=     0.068 Goal=   None    Shift=    0.000
 GapD=    0.068 DampG=0.500 DampE=0.500 DampFc=0.2500 IDamp=-1.
 Damping current iteration by 2.50D-01
 RMSDP=1.77D-03 MaxDP=8.42D-02              OVMax= 1.59D-01

 Cycle   2  Pass 0  IDiag  1:
 RMSU=  4.28D-04    CP:  9.82D-01
 E= -1693.47005437497     Delta-E=       -0.312154542660 Rises=F Damp=T
 DIIS: error= 2.67D-02 at cycle   2 NSaved=   2.
 NSaved= 2 IEnMin= 2 EnMin= -1693.47005437497     IErMin= 2 ErrMin= 2.67D-02
 ErrMax= 2.67D-02  0.00D+00 EMaxC= 1.00D-01 BMatC= 2.99D-01 BMatP= 9.05D-01
 IDIUse=3 WtCom= 7.33D-01 WtEn= 2.67D-01
 Coeff-Com: -0.120D+01 0.220D+01
 Coeff-En:   0.000D+00 0.100D+01
 Coeff:     -0.879D+00 0.188D+01
 Gap=     0.068 Goal=   None    Shift=    0.000
 RMSDP=7.04D-04 MaxDP=3.32D-02 DE=-3.12D-01 OVMax= 8.04D-02

 Cycle   3  Pass 0  IDiag  1:
 RMSU=  4.35D-04    CP:  9.56D-01  2.24D+00
 E= -1694.04049859434     Delta-E=       -0.570444219369 Rises=F Damp=F
 DIIS: error= 5.22D-03 at cycle   3 NSaved=   3.
 NSaved= 3 IEnMin= 3 EnMin= -1694.04049859434     IErMin= 3 ErrMin= 5.22D-03
 ErrMax= 5.22D-03  0.00D+00 EMaxC= 1.00D-01 BMatC= 1.17D-02 BMatP= 2.99D-01
 IDIUse=3 WtCom= 9.48D-01 WtEn= 5.22D-02
 Coeff-Com: -0.239D+00 0.500D+00 0.739D+00
 Coeff-En:   0.000D+00 0.000D+00 0.100D+01
 Coeff:     -0.227D+00 0.474D+00 0.752D+00
 Gap=     0.072 Goal=   None    Shift=    0.000
 RMSDP=2.31D-04 MaxDP=1.22D-02 DE=-5.70D-01 OVMax= 8.11D-02

 Cycle   4  Pass 0  IDiag  1:
 RMSU=  1.98D-04    CP:  9.57D-01  2.16D+00  7.42D-01
 E= -1694.03692442922     Delta-E=        0.003574165116 Rises=F Damp=F
 DIIS: error= 7.56D-03 at cycle   4 NSaved=   4.
 NSaved= 4 IEnMin= 3 EnMin= -1694.04049859434     IErMin= 3 ErrMin= 5.22D-03
 ErrMax= 7.56D-03  0.00D+00 EMaxC= 1.00D-01 BMatC= 1.31D-02 BMatP= 1.17D-02
 IDIUse=3 WtCom= 1.03D-01 WtEn= 8.97D-01
 Coeff-Com: -0.341D-01 0.102D+00 0.522D+00 0.410D+00
 Coeff-En:   0.000D+00 0.000D+00 0.555D+00 0.445D+00
 Coeff:     -0.352D-02 0.105D-01 0.551D+00 0.442D+00
 Gap=     0.069 Goal=   None    Shift=    0.000
 RMSDP=1.42D-04 MaxDP=8.64D-03 DE= 3.57D-03 OVMax= 7.21D-02

 Cycle   5  Pass 0  IDiag  1:
 RMSU=  8.31D-05    CP:  9.57D-01  2.15D+00  8.14D-01  4.39D-01
 E= -1694.05123031804     Delta-E=       -0.014305888816 Rises=F Damp=F
 DIIS: error= 2.49D-03 at cycle   5 NSaved=   5.
 NSaved= 5 IEnMin= 5 EnMin= -1694.05123031804     IErMin= 5 ErrMin= 2.49D-03
 ErrMax= 2.49D-03  0.00D+00 EMaxC= 1.00D-01 BMatC= 1.15D-03 BMatP= 1.17D-02
 IDIUse=3 WtCom= 9.75D-01 WtEn= 2.49D-02
 Coeff-Com: -0.168D-01 0.358D-01 0.243D+00 0.256D+00 0.482D+00
 Coeff-En:   0.000D+00 0.000D+00 0.000D+00 0.560D-01 0.944D+00
 Coeff:     -0.164D-01 0.349D-01 0.237D+00 0.251D+00 0.493D+00
 Gap=     0.070 Goal=   None    Shift=    0.000
 RMSDP=4.96D-05 MaxDP=3.32D-03 DE=-1.43D-02 OVMax= 3.14D-02

 Cycle   6  Pass 0  IDiag  1:
 RMSU=  2.39D-05    CP:  9.57D-01  2.17D+00  8.20D-01  5.33D-01  5.39D-01
 E= -1694.05232774541     Delta-E=       -0.001097427368 Rises=F Damp=F
 DIIS: error= 1.41D-03 at cycle   6 NSaved=   6.
 NSaved= 6 IEnMin= 6 EnMin= -1694.05232774541     IErMin= 6 ErrMin= 1.41D-03
 ErrMax= 1.41D-03  0.00D+00 EMaxC= 1.00D-01 BMatC= 2.41D-04 BMatP= 1.15D-03
 IDIUse=3 WtCom= 9.86D-01 WtEn= 1.41D-02
 Coeff-Com: -0.613D-02 0.908D-02 0.974D-01 0.122D+00 0.355D+00 0.423D+00
 Coeff-En:   0.000D+00 0.000D+00 0.000D+00 0.000D+00 0.179D+00 0.821D+00
 Coeff:     -0.604D-02 0.895D-02 0.960D-01 0.120D+00 0.352D+00 0.429D+00
 Gap=     0.069 Goal=   None    Shift=    0.000
 RMSDP=1.95D-05 MaxDP=1.60D-03 DE=-1.10D-03 OVMax= 1.42D-02

 Cycle   7  Pass 0  IDiag  1:
 RMSU=  8.56D-06    CP:  9.57D-01  2.17D+00  8.22D-01  5.12D-01  6.14D-01
                    CP:  3.37D-01
 E= -1694.05259085938     Delta-E=       -0.000263113974 Rises=F Damp=F
 DIIS: error= 3.68D-04 at cycle   7 NSaved=   7.
 NSaved= 7 IEnMin= 7 EnMin= -1694.05259085938     IErMin= 7 ErrMin= 3.68D-04
 ErrMax= 3.68D-04  0.00D+00 EMaxC= 1.00D-01 BMatC= 2.04D-05 BMatP= 2.41D-04
 IDIUse=3 WtCom= 9.96D-01 WtEn= 3.68D-03
 Coeff-Com: -0.248D-02 0.299D-02 0.524D-01 0.672D-01 0.212D+00 0.297D+00
 Coeff-Com:  0.370D+00
 Coeff-En:   0.000D+00 0.000D+00 0.000D+00 0.000D+00 0.000D+00 0.398D-01
 Coeff-En:   0.960D+00
 Coeff:     -0.247D-02 0.298D-02 0.522D-01 0.669D-01 0.212D+00 0.296D+00
 Coeff:      0.373D+00
 Gap=     0.069 Goal=   None    Shift=    0.000
 RMSDP=5.59D-06 MaxDP=3.78D-04 DE=-2.63D-04 OVMax= 3.28D-03

 Initial convergence to 1.0D-05 achieved.  Increase integral accuracy.
 Cycle   8  Pass 1  IDiag  1:
 E= -1694.05225748810     Delta-E=        0.000333371280 Rises=F Damp=F
 DIIS: error= 1.14D-03 at cycle   1 NSaved=   1.
 NSaved= 1 IEnMin= 1 EnMin= -1694.05225748810     IErMin= 1 ErrMin= 1.14D-03
 ErrMax= 1.14D-03  0.00D+00 EMaxC= 1.00D-01 BMatC= 4.29D-05 BMatP= 4.29D-05
 IDIUse=3 WtCom= 9.89D-01 WtEn= 1.14D-02
 Coeff-Com:  0.100D+01
 Coeff-En:   0.100D+01
 Coeff:      0.100D+01
 Gap=     0.070 Goal=   None    Shift=    0.000
 RMSDP=5.59D-06 MaxDP=3.78D-04 DE= 3.33D-04 OVMax= 2.64D-03

 Cycle   9  Pass 1  IDiag  1:
 RMSU=  3.80D-04    CP:  9.97D-01
 E= -1694.05229782003     Delta-E=       -0.000040331929 Rises=F Damp=F
 DIIS: error= 1.81D-04 at cycle   2 NSaved=   2.
 NSaved= 2 IEnMin= 2 EnMin= -1694.05229782003     IErMin= 2 ErrMin= 1.81D-04
 ErrMax= 1.81D-04  0.00D+00 EMaxC= 1.00D-01 BMatC= 3.85D-06 BMatP= 4.29D-05
 IDIUse=3 WtCom= 9.98D-01 WtEn= 1.81D-03
 Coeff-Com:  0.103D+00 0.897D+00
 Coeff-En:   0.000D+00 0.100D+01
 Coeff:      0.102D+00 0.898D+00
 Gap=     0.069 Goal=   None    Shift=    0.000
 RMSDP=7.98D-06 MaxDP=5.08D-04 DE=-4.03D-05 OVMax= 4.50D-03

 Cycle  10  Pass 1  IDiag  1:
 RMSU=  7.21D-06    CP:  9.97D-01  1.01D+00
 E= -1694.05227593789     Delta-E=        0.000021882139 Rises=F Damp=F
 DIIS: error= 4.60D-04 at cycle   3 NSaved=   3.
 NSaved= 3 IEnMin= 2 EnMin= -1694.05229782003     IErMin= 2 ErrMin= 1.81D-04
 ErrMax= 4.60D-04  0.00D+00 EMaxC= 1.00D-01 BMatC= 2.11D-05 BMatP= 3.85D-06
 IDIUse=3 WtCom= 3.18D-01 WtEn= 6.82D-01
 Coeff-Com: -0.178D-02 0.704D+00 0.298D+00
 Coeff-En:   0.000D+00 0.779D+00 0.221D+00
 Coeff:     -0.565D-03 0.755D+00 0.245D+00
 Gap=     0.069 Goal=   None    Shift=    0.000
 RMSDP=4.25D-06 MaxDP=2.89D-04 DE= 2.19D-05 OVMax= 2.74D-03

 Cycle  11  Pass 1  IDiag  1:
 RMSU=  9.71D-07    CP:  9.97D-01  1.01D+00  4.30D-01
 E= -1694.05230154491     Delta-E=       -0.000025607021 Rises=F Damp=F
 DIIS: error= 6.90D-05 at cycle   4 NSaved=   4.
 NSaved= 4 IEnMin= 4 EnMin= -1694.05230154491     IErMin= 4 ErrMin= 6.90D-05
 ErrMax= 6.90D-05  0.00D+00 EMaxC= 1.00D-01 BMatC= 8.51D-07 BMatP= 3.85D-06
 IDIUse=1 WtCom= 1.00D+00 WtEn= 0.00D+00
 Coeff-Com: -0.389D-02 0.455D+00 0.113D+00 0.436D+00
 Coeff:     -0.389D-02 0.455D+00 0.113D+00 0.436D+00
 Gap=     0.069 Goal=   None    Shift=    0.000
 RMSDP=9.74D-07 MaxDP=6.29D-05 DE=-2.56D-05 OVMax= 4.89D-04

 Cycle  12  Pass 1  IDiag  1:
 RMSU=  4.11D-07    CP:  9.97D-01  1.01D+00  3.10D-01  8.53D-01
 E= -1694.05230251909     Delta-E=       -0.000000974182 Rises=F Damp=F
 DIIS: error= 5.74D-06 at cycle   5 NSaved=   5.
 NSaved= 5 IEnMin= 5 EnMin= -1694.05230251909     IErMin= 5 ErrMin= 5.74D-06
 ErrMax= 5.74D-06  0.00D+00 EMaxC= 1.00D-01 BMatC= 4.74D-09 BMatP= 8.51D-07
 IDIUse=1 WtCom= 1.00D+00 WtEn= 0.00D+00
 Coeff-Com: -0.236D-02 0.268D+00 0.638D-01 0.273D+00 0.398D+00
 Coeff:     -0.236D-02 0.268D+00 0.638D-01 0.273D+00 0.398D+00
 Gap=     0.069 Goal=   None    Shift=    0.000
 RMSDP=1.01D-07 MaxDP=5.00D-06 DE=-9.74D-07 OVMax= 3.86D-05

 Cycle  13  Pass 1  IDiag  1:
 RMSU=  9.14D-08    CP:  9.97D-01  1.01D+00  3.10D-01  8.72D-01  9.07D-01
 E= -1694.05230252495     Delta-E=       -0.000000005854 Rises=F Damp=F
 DIIS: error= 1.50D-06 at cycle   6 NSaved=   6.
 NSaved= 6 IEnMin= 6 EnMin= -1694.05230252495     IErMin= 6 ErrMin= 1.50D-06
 ErrMax= 1.50D-06  0.00D+00 EMaxC= 1.00D-01 BMatC= 5.54D-10 BMatP= 4.74D-09
 IDIUse=1 WtCom= 1.00D+00 WtEn= 0.00D+00
 Coeff-Com: -0.905D-03 0.993D-01 0.227D-01 0.106D+00 0.259D+00 0.513D+00
 Coeff:     -0.905D-03 0.993D-01 0.227D-01 0.106D+00 0.259D+00 0.513D+00
 Gap=     0.069 Goal=   None    Shift=    0.000
 RMSDP=2.43D-08 MaxDP=1.69D-06 DE=-5.85D-09 OVMax= 1.19D-05

 Cycle  14  Pass 1  IDiag  1:
 RMSU=  1.98D-08    CP:  9.97D-01  1.01D+00  3.10D-01  8.72D-01  9.22D-01
                    CP:  8.71D-01
 E= -1694.05230252549     Delta-E=       -0.000000000548 Rises=F Damp=F
 DIIS: error= 4.60D-07 at cycle   7 NSaved=   7.
 NSaved= 7 IEnMin= 7 EnMin= -1694.05230252549     IErMin= 7 ErrMin= 4.60D-07
 ErrMax= 4.60D-07  0.00D+00 EMaxC= 1.00D-01 BMatC= 3.75D-11 BMatP= 5.54D-10
 IDIUse=1 WtCom= 1.00D+00 WtEn= 0.00D+00
 Coeff-Com: -0.357D-03 0.387D-01 0.868D-02 0.424D-01 0.124D+00 0.282D+00
 Coeff-Com:  0.506D+00
 Coeff:     -0.357D-03 0.387D-01 0.868D-02 0.424D-01 0.124D+00 0.282D+00
 Coeff:      0.506D+00
 Gap=     0.069 Goal=   None    Shift=    0.000
 RMSDP=1.18D-08 MaxDP=7.12D-07 DE=-5.48D-10 OVMax= 7.17D-06

 Cycle  15  Pass 1  IDiag  1:
 RMSU=  8.84D-09    CP:  9.97D-01  1.01D+00  3.10D-01  8.73D-01  9.24D-01
                    CP:  8.90D-01  6.32D-01
 E= -1694.05230252552     Delta-E=       -0.000000000024 Rises=F Damp=F
 DIIS: error= 3.61D-07 at cycle   8 NSaved=   8.
 NSaved= 8 IEnMin= 8 EnMin= -1694.05230252552     IErMin= 8 ErrMin= 3.61D-07
 ErrMax= 3.61D-07  0.00D+00 EMaxC= 1.00D-01 BMatC= 2.19D-11 BMatP= 3.75D-11
 IDIUse=1 WtCom= 1.00D+00 WtEn= 0.00D+00
 Coeff-Com: -0.521D-05 0.782D-04-0.166D-03 0.101D-02 0.228D-01 0.671D-01
 Coeff-Com:  0.430D+00 0.479D+00
 Coeff:     -0.521D-05 0.782D-04-0.166D-03 0.101D-02 0.228D-01 0.671D-01
 Coeff:      0.430D+00 0.479D+00
 Gap=     0.069 Goal=   None    Shift=    0.000
 RMSDP=5.57D-09 MaxDP=3.32D-07 DE=-2.36D-11 OVMax= 3.04D-06

 SCF Done:  E(RB3LYP) =  -1694.05230253     A.U. after   15 cycles
            NFock= 15  Conv=0.56D-08     -V/T= 2.0044
 KE= 1.686676242977D+03 PE=-1.294540311822D+04 EE= 5.057167653506D+03
 Leave Link  502 at Wed Sep 27 16:39:43 2023, MaxMem=  3221225472 cpu:            3532.2 elap:             100.0
 (Enter /home/center/opt/aarch64/apps/gaussian16/c01/g16/l601.exe)
 Copying SCF densities to generalized density rwf, IOpCl= 0 IROHF=0.

 **********************************************************************

            Population analysis using the SCF Density.

 **********************************************************************

 Orbital symmetries:
       Occupied  (A") (A') (A') (A") (A") (A') (A") (A') (A') (A')
                 (A") (A') (A") (A') (A") (A') (A") (A') (A") (A')
                 (A") (A') (A") (A') (A') (A") (A") (A') (A") (A')
                 (A") (A') (A') (A") (A') (A') (A") (A') (A") (A')
                 (A") (A') (A") (A') (A') (A') (A") (A") (A') (A')
                 (A") (A") (A') (A') (A') (A") (A') (A") (A') (A')
                 (A") (A") (A") (A") (A') (A') (A') (A') (A") (A")
                 (A") (A") (A') (A") (A') (A') (A") (A') (A') (A')
                 (A') (A") (A") (A') (A") (A") (A') (A') (A") (A")
                 (A') (A') (A') (A") (A") (A') (A") (A") (A') (A')
                 (A') (A") (A') (A') (A') (A") (A') (A") (A') (A')
                 (A") (A') (A") (A") (A") (A") (A") (A") (A') (A')
                 (A') (A') (A') (A') (A") (A") (A') (A") (A") (A")
                 (A') (A") (A') (A') (A") (A") (A') (A') (A') (A')
                 (A") (A") (A") (A") (A') (A')
       Virtual   (A') (A') (A") (A") (A") (A") (A') (A') (A') (A")
                 (A') (A') (A") (A') (A") (A') (A') (A') (A") (A")
                 (A') (A') (A") (A') (A") (A") (A') (A') (A") (A")
                 (A") (A') (A") (A') (A') (A") (A") (A') (A") (A')
                 (A') (A') (A") (A') (A') (A") (A") (A") (A') (A')
                 (A") (A') (A') (A') (A') (A') (A') (A") (A') (A")
                 (A") (A") (A") (A") (A') (A') (A") (A") (A") (A')
                 (A') (A') (A") (A') (A") (A') (A") (A") (A') (A")
                 (A') (A') (A') (A') (A") (A') (A') (A") (A') (A")
                 (A') (A") (A') (A') (A") (A") (A') (A") (A") (A")
                 (A") (A') (A') (A') (A') (A") (A') (A") (A') (A")
                 (A") (A') (A") (A') (A') (A") (A") (A") (A') (A')
                 (A') (A") (A') (A') (A') (A") (A') (A') (A") (A')
                 (A") (A') (A") (A') (A') (A") (A') (A') (A") (A')
                 (A") (A') (A") (A') (A") (A") (A') (A") (A') (A")
                 (A') (A") (A') (A") (A") (A') (A') (A") (A') (A")
                 (A') (A") (A') (A") (A') (A') (A") (A") (A') (A")
                 (A") (A') (A") (A') (A') (A') (A') (A') (A") (A')
                 (A") (A') (A") (A') (A") (A") (A') (A") (A") (A')
                 (A") (A') (A") (A") (A') (A') (A") (A') (A') (A")
                 (A') (A") (A') (A") (A') (A") (A') (A') (A") (A')
                 (A") (A') (A') (A") (A") (A') (A") (A') (A") (A')
                 (A") (A') (A") (A") (A') (A") (A') (A') (A") (A')
                 (A') (A") (A") (A') (A") (A') (A') (A") (A') (A")
                 (A") (A') (A") (A') (A') (A") (A') (A") (A') (A")
                 (A") (A') (A') (A") (A") (A') (A") (A') (A") (A")
                 (A') (A') (A") (A') (A') (A') (A") (A') (A') (A")
                 (A") (A') (A") (A") (A") (A') (A") (A') (A") (A')
                 (A") (A') (A') (A') (A") (A") (A') (A") (A') (A")
                 (A') (A") (A') (A') (A") (A") (A') (A') (A") (A')
                 (A") (A") (A") (A") (A') (A') (A") (A') (A') (A')
                 (A') (A") (A') (A') (A") (A") (A") (A') (A") (A")
                 (A') (A") (A') (A') (A') (A") (A') (A") (A") (A')
                 (A") (A") (A') (A") (A') (A") (A') (A') (A") (A')
                 (A") (A') (A') (A') (A") (A") (A') (A') (A") (A')
                 (A") (A') (A") (A") (A') (A') (A') (A') (A') (A')
                 (A") (A") (A') (A") (A') (A") (A") (A") (A") (A")
                 (A') (A") (A") (A') (A") (A') (A") (A') (A') (A')
                 (A") (A') (A") (A') (A") (A') (A') (A") (A') (A')
                 (A') (A') (A") (A") (A') (A') (A") (A") (A") (A')
                 (A') (A") (A") (A') (A") (A') (A') (A') (A") (A")
                 (A') (A') (A") (A') (A') (A") (A") (A") (A') (A')
                 (A') (A") (A') (A') (A") (A') (A') (A") (A") (A')
                 (A") (A") (A") (A') (A") (A') (A') (A") (A') (A")
                 (A") (A') (A") (A') (A") (A") (A') (A') (A") (A")
                 (A') (A') (A") (A') (A") (A') (A') (A") (A") (A')
                 (A") (A") (A') (A') (A') (A") (A") (A') (A') (A')
                 (A") (A") (A') (A") (A') (A") (A") (A') (A") (A')
                 (A') (A") (A") (A') (A') (A') (A") (A") (A') (A")
                 (A") (A") (A') (A") (A") (A") (A") (A") (A') (A')
                 (A") (A') (A') (A') (A") (A') (A') (A') (A") (A")
                 (A') (A') (A') (A') (A") (A") (A') (A") (A') (A")
                 (A") (A") (A') (A") (A') (A') (A") (A') (A") (A')
                 (A") (A') (A") (A") (A") (A') (A") (A') (A') (A')
                 (A") (A") (A') (A') (A") (A') (A") (A') (A") (A")
                 (A') (A") (A") (A') (A") (A') (A') (A") (A') (A')
                 (A") (A') (A") (A') (A") (A') (A') (A") (A") (A")
                 (A') (A') (A') (A') (A') (A') (A") (A') (A") (A")
                 (A') (A") (A") (A') (A") (A') (A') (A") (A") (A')
                 (A") (A') (A") (A") (A') (A") (A') (A") (A') (A')
                 (A") (A') (A") (A') (A') (A") (A') (A') (A") (A')
                 (A') (A") (A') (A") (A') (A') (A") (A') (A') (A")
                 (A") (A") (A') (A') (A") (A') (A") (A") (A") (A')
                 (A') (A") (A') (A') (A") (A') (A') (A') (A") (A")
                 (A') (A") (A") (A') (A") (A") (A") (A') (A') (A')
                 (A") (A') (A') (A") (A') (A') (A') (A") (A') (A")
                 (A") (A") (A') (A') (A") (A") (A') (A') (A') (A")
                 (A') (A") (A') (A") (A") (A') (A") (A") (A') (A')
                 (A') (A') (A") (A") (A') (A") (A') (A") (A") (A")
                 (A') (A') (A") (A') (A') (A') (A") (A') (A") (A")
                 (A') (A') (A") (A") (A') (A") (A') (A") (A') (A")
                 (A') (A") (A") (A") (A') (A') (A') (A') (A") (A")
                 (A') (A') (A") (A') (A") (A') (A') (A') (A") (A")
                 (A") (A') (A') (A") (A") (A') (A') (A") (A') (A")
                 (A') (A") (A') (A") (A') (A') (A") (A') (A') (A')
                 (A") (A') (A") (A') (A") (A") (A') (A') (A") (A")
                 (A") (A') (A") (A") (A') (A") (A') (A") (A') (A")
                 (A') (A') (A") (A") (A') (A') (A') (A') (A") (A")
                 (A") (A") (A') (A') (A") (A') (A") (A') (A') (A')
                 (A") (A") (A") (A") (A') (A') (A') (A") (A') (A")
                 (A') (A') (A") (A') (A") (A") (A') (A') (A") (A')
                 (A') (A") (A') (A")
 The electronic state is 1-A'.
 Alpha  occ. eigenvalues --  -10.19457 -10.19457 -10.19379 -10.19378 -10.19370
 Alpha  occ. eigenvalues --  -10.19370 -10.19272 -10.19272 -10.18467 -10.18437
 Alpha  occ. eigenvalues --  -10.18409 -10.18409 -10.18405 -10.18404 -10.18369
 Alpha  occ. eigenvalues --  -10.18369 -10.18301 -10.18301 -10.18278 -10.18278
 Alpha  occ. eigenvalues --  -10.18276 -10.18276 -10.18221 -10.18221 -10.18206
 Alpha  occ. eigenvalues --  -10.18205 -10.18189 -10.18189 -10.18134 -10.18134
 Alpha  occ. eigenvalues --  -10.17319 -10.17319 -10.17289 -10.17276 -10.17276
 Alpha  occ. eigenvalues --  -10.17252 -10.17252 -10.17220 -10.17203 -10.17203
 Alpha  occ. eigenvalues --  -10.17187 -10.17187 -10.17119 -10.17119  -0.89838
 Alpha  occ. eigenvalues --   -0.88682  -0.88349  -0.87226  -0.86028  -0.84919
 Alpha  occ. eigenvalues --   -0.82891  -0.81789  -0.80312  -0.79147  -0.78995
 Alpha  occ. eigenvalues --   -0.78793  -0.77897  -0.77661  -0.76464  -0.75346
 Alpha  occ. eigenvalues --   -0.74732  -0.73626  -0.73372  -0.72260  -0.69672
 Alpha  occ. eigenvalues --   -0.68548  -0.67817  -0.66713  -0.63204  -0.62833
 Alpha  occ. eigenvalues --   -0.62090  -0.61748  -0.61583  -0.60430  -0.60417
 Alpha  occ. eigenvalues --   -0.59762  -0.59288  -0.58646  -0.58152  -0.57061
 Alpha  occ. eigenvalues --   -0.53173  -0.53033  -0.52751  -0.52079  -0.51918
 Alpha  occ. eigenvalues --   -0.51669  -0.50108  -0.48995  -0.48972  -0.47904
 Alpha  occ. eigenvalues --   -0.47610  -0.46573  -0.46525  -0.46037  -0.45947
 Alpha  occ. eigenvalues --   -0.45427  -0.44917  -0.44842  -0.44389  -0.43629
 Alpha  occ. eigenvalues --   -0.43313  -0.43023  -0.42541  -0.42273  -0.42028
 Alpha  occ. eigenvalues --   -0.41911  -0.41869  -0.41174  -0.41126  -0.40908
 Alpha  occ. eigenvalues --   -0.40860  -0.40741  -0.40086  -0.40034  -0.39786
 Alpha  occ. eigenvalues --   -0.38955  -0.38646  -0.37550  -0.37228  -0.36788
 Alpha  occ. eigenvalues --   -0.36119  -0.36001  -0.35746  -0.34872  -0.34567
 Alpha  occ. eigenvalues --   -0.34257  -0.33521  -0.33459  -0.33396  -0.33160
 Alpha  occ. eigenvalues --   -0.32623  -0.32322  -0.31830  -0.30957  -0.30114
 Alpha  occ. eigenvalues --   -0.29029  -0.28879  -0.27805  -0.27099  -0.25995
 Alpha  occ. eigenvalues --   -0.24852  -0.23750  -0.23069  -0.21954  -0.18358
 Alpha  occ. eigenvalues --   -0.17210
 Alpha virt. eigenvalues --   -0.10261  -0.09114  -0.04963  -0.03841  -0.03253
 Alpha virt. eigenvalues --   -0.02132  -0.00681   0.00475   0.01578   0.01710
 Alpha virt. eigenvalues --    0.02310   0.02672   0.02991   0.03682   0.03899
 Alpha virt. eigenvalues --    0.03929   0.04401   0.05248   0.05516   0.05795
 Alpha virt. eigenvalues --    0.05899   0.06398   0.07170   0.07655   0.07666
 Alpha virt. eigenvalues --    0.07856   0.08782   0.08885   0.08907   0.09486
 Alpha virt. eigenvalues --    0.09797   0.09929   0.10901   0.10954   0.11015
 Alpha virt. eigenvalues --    0.11621   0.12497   0.12803   0.13323   0.13911
 Alpha virt. eigenvalues --    0.14173   0.14745   0.15274   0.15587   0.17766
 Alpha virt. eigenvalues --    0.17798   0.18364   0.18750   0.19158   0.19326
 Alpha virt. eigenvalues --    0.19486   0.20143   0.22394   0.22572   0.23516
 Alpha virt. eigenvalues --    0.23671   0.24028   0.24275   0.25069   0.25168
 Alpha virt. eigenvalues --    0.25665   0.26136   0.27085   0.27222   0.27610
 Alpha virt. eigenvalues --    0.27810   0.28024   0.28160   0.28731   0.28741
 Alpha virt. eigenvalues --    0.28818   0.29252   0.29591   0.29975   0.30098
 Alpha virt. eigenvalues --    0.30346   0.30738   0.31278   0.31292   0.31862
 Alpha virt. eigenvalues --    0.32455   0.34111   0.34360   0.35011   0.36052
 Alpha virt. eigenvalues --    0.36131   0.36497   0.36633   0.37142   0.37151
 Alpha virt. eigenvalues --    0.37330   0.37380   0.37595   0.37863   0.38010
 Alpha virt. eigenvalues --    0.38324   0.38418   0.38501   0.38740   0.39199
 Alpha virt. eigenvalues --    0.39529   0.39532   0.39612   0.39943   0.40009
 Alpha virt. eigenvalues --    0.40565   0.40712   0.40726   0.40999   0.41488
 Alpha virt. eigenvalues --    0.41861   0.42072   0.42216   0.42243   0.42407
 Alpha virt. eigenvalues --    0.42470   0.42527   0.42770   0.43031   0.43249
 Alpha virt. eigenvalues --    0.43605   0.43898   0.44064   0.44645   0.44992
 Alpha virt. eigenvalues --    0.45077   0.45238   0.45472   0.45684   0.45851
 Alpha virt. eigenvalues --    0.45913   0.45957   0.45997   0.46189   0.46318
 Alpha virt. eigenvalues --    0.46585   0.46598   0.47029   0.47109   0.47204
 Alpha virt. eigenvalues --    0.47548   0.47568   0.48348   0.48423   0.48873
 Alpha virt. eigenvalues --    0.49032   0.49044   0.49304   0.49421   0.50022
 Alpha virt. eigenvalues --    0.50069   0.50215   0.50669   0.50754   0.51263
 Alpha virt. eigenvalues --    0.51923   0.52170   0.52292   0.52426   0.52937
 Alpha virt. eigenvalues --    0.53906   0.54061   0.54199   0.54395   0.54565
 Alpha virt. eigenvalues --    0.55604   0.56225   0.56741   0.57362   0.57368
 Alpha virt. eigenvalues --    0.58504   0.58604   0.59140   0.59639   0.59948
 Alpha virt. eigenvalues --    0.60030   0.60580   0.61312   0.61462   0.61540
 Alpha virt. eigenvalues --    0.61540   0.61771   0.61808   0.62100   0.62210
 Alpha virt. eigenvalues --    0.62492   0.62718   0.62993   0.63381   0.63413
 Alpha virt. eigenvalues --    0.63944   0.64196   0.64357   0.64728   0.65398
 Alpha virt. eigenvalues --    0.65658   0.65662   0.65964   0.66275   0.66341
 Alpha virt. eigenvalues --    0.67117   0.67364   0.68507   0.69704   0.70250
 Alpha virt. eigenvalues --    0.70492   0.70607   0.71503   0.71663   0.72061
 Alpha virt. eigenvalues --    0.72443   0.72500   0.72794   0.73104   0.73611
 Alpha virt. eigenvalues --    0.74154   0.74439   0.74640   0.75152   0.76177
 Alpha virt. eigenvalues --    0.76218   0.76838   0.76864   0.77343   0.78012
 Alpha virt. eigenvalues --    0.78092   0.78730   0.79138   0.79308   0.80110
 Alpha virt. eigenvalues --    0.80435   0.80440   0.80608   0.81213   0.81972
 Alpha virt. eigenvalues --    0.82120   0.82233   0.82549   0.82887   0.83126
 Alpha virt. eigenvalues --    0.83591   0.84034   0.84277   0.84417   0.85028
 Alpha virt. eigenvalues --    0.85534   0.85867   0.87728   0.87886   0.88188
 Alpha virt. eigenvalues --    0.89717   0.89725   0.90499   0.90760   0.90996
 Alpha virt. eigenvalues --    0.91410   0.91877   0.92428   0.93170   0.93232
 Alpha virt. eigenvalues --    0.93312   0.94411   0.94931   0.95306   0.95616
 Alpha virt. eigenvalues --    0.96010   0.96177   0.96470   0.96969   0.97013
 Alpha virt. eigenvalues --    0.97719   0.97876   0.98180   0.99182   0.99731
 Alpha virt. eigenvalues --    1.00031   1.00707   1.00885   1.01740   1.02381
 Alpha virt. eigenvalues --    1.02674   1.02772   1.03336   1.03372   1.03815
 Alpha virt. eigenvalues --    1.04389   1.04797   1.05063   1.05156   1.05493
 Alpha virt. eigenvalues --    1.05918   1.05948   1.06021   1.06069   1.06170
 Alpha virt. eigenvalues --    1.06625   1.07067   1.07635   1.07770   1.08062
 Alpha virt. eigenvalues --    1.08103   1.08917   1.09084   1.09871   1.10080
 Alpha virt. eigenvalues --    1.10403   1.10678   1.11060   1.11615   1.12707
 Alpha virt. eigenvalues --    1.12976   1.13088   1.13566   1.13845   1.14059
 Alpha virt. eigenvalues --    1.14913   1.15153   1.15440   1.15746   1.16005
 Alpha virt. eigenvalues --    1.17099   1.17956   1.18126   1.19187   1.20027
 Alpha virt. eigenvalues --    1.21012   1.21532   1.22840   1.23124   1.23171
 Alpha virt. eigenvalues --    1.23995   1.25317   1.27851   1.28205   1.30285
 Alpha virt. eigenvalues --    1.30597   1.30953   1.32689   1.32706   1.33241
 Alpha virt. eigenvalues --    1.33800   1.34912   1.35163   1.36197   1.37515
 Alpha virt. eigenvalues --    1.38414   1.39129   1.39700   1.39908   1.40135
 Alpha virt. eigenvalues --    1.40468   1.40602   1.40734   1.41415   1.42508
 Alpha virt. eigenvalues --    1.42862   1.43483   1.43708   1.44099   1.45302
 Alpha virt. eigenvalues --    1.45366   1.45630   1.46101   1.46781   1.46983
 Alpha virt. eigenvalues --    1.47424   1.47883   1.48074   1.48853   1.49341
 Alpha virt. eigenvalues --    1.49350   1.49516   1.49942   1.50073   1.50248
 Alpha virt. eigenvalues --    1.50596   1.51202   1.51327   1.52717   1.53007
 Alpha virt. eigenvalues --    1.53046   1.53992   1.53996   1.54257   1.54338
 Alpha virt. eigenvalues --    1.54466   1.54566   1.54921   1.54974   1.55468
 Alpha virt. eigenvalues --    1.55921   1.57056   1.57555   1.57687   1.57929
 Alpha virt. eigenvalues --    1.59077   1.59233   1.59693   1.60191   1.60584
 Alpha virt. eigenvalues --    1.60911   1.61245   1.62379   1.62944   1.63575
 Alpha virt. eigenvalues --    1.64361   1.65415   1.66025   1.66352   1.67406
 Alpha virt. eigenvalues --    1.69223   1.69580   1.69936   1.70364   1.70434
 Alpha virt. eigenvalues --    1.70529   1.70817   1.71839   1.71994   1.72149
 Alpha virt. eigenvalues --    1.72762   1.73289   1.73333   1.73576   1.73662
 Alpha virt. eigenvalues --    1.73693   1.73782   1.74192   1.74500   1.74871
 Alpha virt. eigenvalues --    1.77079   1.78120   1.78320   1.79216   1.79534
 Alpha virt. eigenvalues --    1.79771   1.79922   1.80025   1.80610   1.81364
 Alpha virt. eigenvalues --    1.81593   1.81675   1.82245   1.82333   1.82649
 Alpha virt. eigenvalues --    1.82782   1.84261   1.84553   1.84687   1.84925
 Alpha virt. eigenvalues --    1.85318   1.86298   1.87117   1.87280   1.87481
 Alpha virt. eigenvalues --    1.87662   1.88082   1.88228   1.88313   1.88371
 Alpha virt. eigenvalues --    1.88664   1.88788   1.89040   1.90108   1.90796
 Alpha virt. eigenvalues --    1.91028   1.91298   1.91498   1.92250   1.92270
 Alpha virt. eigenvalues --    1.92517   1.92856   1.92971   1.93200   1.93261
 Alpha virt. eigenvalues --    1.93276   1.94059   1.94190   1.94224   1.95070
 Alpha virt. eigenvalues --    1.95134   1.95406   1.95559   1.96191   1.97355
 Alpha virt. eigenvalues --    1.97981   1.99651   2.00141   2.00381   2.00623
 Alpha virt. eigenvalues --    2.00740   2.01009   2.01769   2.02535   2.03694
 Alpha virt. eigenvalues --    2.03827   2.05432   2.07122   2.07879   2.08848
 Alpha virt. eigenvalues --    2.08973   2.09389   2.09961   2.10249   2.10384
 Alpha virt. eigenvalues --    2.10488   2.11896   2.12821   2.13834   2.14779
 Alpha virt. eigenvalues --    2.15304   2.15965   2.16248   2.16691   2.16769
 Alpha virt. eigenvalues --    2.17812   2.19535   2.20462   2.20829   2.21405
 Alpha virt. eigenvalues --    2.21979   2.22331   2.22547   2.23047   2.23315
 Alpha virt. eigenvalues --    2.24237   2.24390   2.25131   2.26451   2.26473
 Alpha virt. eigenvalues --    2.26810   2.27238   2.27554   2.27787   2.27878
 Alpha virt. eigenvalues --    2.27923   2.28966   2.29184   2.29583   2.31132
 Alpha virt. eigenvalues --    2.33170   2.34481   2.35351   2.36366   2.38923
 Alpha virt. eigenvalues --    2.39006   2.40010   2.40183   2.40427   2.41263
 Alpha virt. eigenvalues --    2.42716   2.42843   2.43849   2.44138   2.45367
 Alpha virt. eigenvalues --    2.45570   2.46274   2.46435   2.46651   2.48149
 Alpha virt. eigenvalues --    2.50820   2.52407   2.52754   2.52837   2.53793
 Alpha virt. eigenvalues --    2.53926   2.54573   2.54717   2.55770   2.56018
 Alpha virt. eigenvalues --    2.56606   2.57768   2.58445   2.59042   2.59275
 Alpha virt. eigenvalues --    2.59389   2.59461   2.60335   2.60461   2.60680
 Alpha virt. eigenvalues --    2.60705   2.61217   2.61602   2.61765   2.62503
 Alpha virt. eigenvalues --    2.62535   2.62828   2.63319   2.63697   2.64254
 Alpha virt. eigenvalues --    2.64268   2.64638   2.65584   2.65897   2.66158
 Alpha virt. eigenvalues --    2.66605   2.66747   2.67022   2.67226   2.67874
 Alpha virt. eigenvalues --    2.68177   2.68437   2.68764   2.68764   2.69200
 Alpha virt. eigenvalues --    2.69414   2.69452   2.69823   2.69856   2.70207
 Alpha virt. eigenvalues --    2.70257   2.70593   2.71107   2.71659   2.72960
 Alpha virt. eigenvalues --    2.73385   2.74152   2.74238   2.74709   2.75421
 Alpha virt. eigenvalues --    2.75502   2.76370   2.77008   2.77539   2.77803
 Alpha virt. eigenvalues --    2.77953   2.78096   2.78508   2.78882   2.79185
 Alpha virt. eigenvalues --    2.79303   2.79489   2.80646   2.81476   2.81643
 Alpha virt. eigenvalues --    2.82174   2.83050   2.84227   2.85056   2.86056
 Alpha virt. eigenvalues --    2.86212   2.86315   2.86639   2.87487   2.87928
 Alpha virt. eigenvalues --    2.89143   2.89455   2.90054   2.90649   2.91698
 Alpha virt. eigenvalues --    2.92492   2.92793   2.93268   2.93781   2.94040
 Alpha virt. eigenvalues --    2.94871   2.95423   2.95476   2.97216   2.97540
 Alpha virt. eigenvalues --    2.98816   3.00177   3.00533   3.02703   3.03696
 Alpha virt. eigenvalues --    3.04109   3.05364   3.06633   3.06950   3.07279
 Alpha virt. eigenvalues --    3.08018   3.08563   3.15709   3.15711   3.16134
 Alpha virt. eigenvalues --    3.16915   3.17088   3.17596   3.19601   3.19777
 Alpha virt. eigenvalues --    3.20659   3.20933   3.23190   3.24403   3.28968
 Alpha virt. eigenvalues --    3.29536   3.29973   3.30434   3.31374   3.32527
 Alpha virt. eigenvalues --    3.34945   3.35532   3.35829   3.36179   3.36455
 Alpha virt. eigenvalues --    3.36582   3.36735   3.37345   3.37693   3.38836
 Alpha virt. eigenvalues --    3.39579   3.40757   3.40989   3.42777   3.44917
 Alpha virt. eigenvalues --    3.45073   3.45719   3.46252   3.48180   3.48253
 Alpha virt. eigenvalues --    3.49192   3.49457   3.50388   3.51162   3.52974
 Alpha virt. eigenvalues --    3.54042   3.57129   3.58252   3.58481   3.59450
 Alpha virt. eigenvalues --    3.61505   3.62344   3.62489   3.63038   3.63486
 Alpha virt. eigenvalues --    3.63629   3.65450   3.65790   3.65889   3.66917
 Alpha virt. eigenvalues --    3.67382   3.67647   3.68922   3.68966   4.00060
 Alpha virt. eigenvalues --    4.00115   4.01403   4.01432   4.01597   4.01831
 Alpha virt. eigenvalues --    4.02614   4.02955   4.15765   4.16319   4.17043
 Alpha virt. eigenvalues --    4.17278   4.17831   4.19550   4.21009   4.22057
 Alpha virt. eigenvalues --    4.22141   4.22578   4.23369   4.23887   4.25217
 Alpha virt. eigenvalues --    4.27266   4.38065   4.39747   4.61885   4.63407
 Alpha virt. eigenvalues --    4.78710   4.79294   4.79998   4.80107   4.80534
 Alpha virt. eigenvalues --    4.81478   4.82075   4.82516   4.83665   4.84125
 Alpha virt. eigenvalues --   23.38986  23.40434  23.54532  23.55701  23.69208
 Alpha virt. eigenvalues --   23.70094  23.77142  23.78252  23.80439  23.81138
 Alpha virt. eigenvalues --   23.81451  23.82417  23.85844  23.86905  23.88792
 Alpha virt. eigenvalues --   23.89081  23.89863  23.89920  23.91915  23.93083
 Alpha virt. eigenvalues --   23.97086  23.97936  23.98336  23.99063  24.08606
 Alpha virt. eigenvalues --   24.09463  24.09754  24.10070  24.10617  24.11214
 Alpha virt. eigenvalues --   24.11805  24.13116  24.13321  24.13898  24.14659
 Alpha virt. eigenvalues --   24.15326  24.15338  24.15368  24.16388  24.16422
 Alpha virt. eigenvalues --   24.20006  24.20051  24.21229  24.21276
          Condensed to atoms (all electrons):
 Mulliken charges:
               1
     1  C   -0.037394
     2  C   -0.063810
     3  C   -0.078201
     4  C   -0.050555
     5  C   -0.087095
     6  C   -0.090631
     7  C   -0.052752
     8  C   -0.026770
     9  C   -0.004903
    10  C   -0.062730
    11  H    0.084990
    12  H    0.076368
    13  H    0.077462
    14  H    0.084386
    15  H    0.096703
    16  H    0.097351
    17  C   -0.056367
    18  C   -0.026770
    19  C   -0.008931
    20  C   -0.062730
    21  H    0.075092
    22  H    0.076122
    23  C   -0.052752
    24  C   -0.037394
    25  C   -0.004903
    26  C   -0.063810
    27  H    0.076368
    28  H    0.077462
    29  C   -0.078201
    30  C   -0.087095
    31  C   -0.050555
    32  C   -0.090631
    33  H    0.084990
    34  H    0.097351
    35  H    0.096703
    36  H    0.084386
    37  C   -0.038383
    38  C   -0.095036
    39  C   -0.060685
    40  C   -0.055493
    41  C   -0.088517
    42  C   -0.108842
    43  C   -0.026002
    44  C   -0.028783
    45  C   -0.015646
    46  C   -0.096606
    47  H    0.079603
    48  H    0.071652
    49  H    0.105960
    50  H    0.107581
    51  H    0.089410
    52  H    0.092148
    53  C   -0.030178
    54  C   -0.028783
    55  C   -0.019865
    56  C   -0.096606
    57  H    0.070246
    58  H    0.104317
    59  C   -0.026002
    60  C   -0.038383
    61  C   -0.015646
    62  C   -0.095036
    63  H    0.071652
    64  H    0.105960
    65  C   -0.060685
    66  C   -0.088517
    67  C   -0.055493
    68  C   -0.108842
    69  H    0.079603
    70  H    0.092148
    71  H    0.089410
    72  H    0.107581
 Sum of Mulliken charges =   0.00000
 Mulliken charges with hydrogens summed into heavy atoms:
               1
     1  C   -0.037394
     2  C   -0.063810
     3  C    0.006789
     4  C    0.033831
     5  C    0.010256
     6  C    0.006072
     7  C    0.023616
     8  C   -0.026770
     9  C    0.072559
    10  C   -0.062730
    17  C    0.018725
    18  C   -0.026770
    19  C    0.067191
    20  C   -0.062730
    23  C    0.023616
    24  C   -0.037394
    25  C    0.072559
    26  C   -0.063810
    29  C    0.006789
    30  C    0.010256
    31  C    0.033831
    32  C    0.006072
    37  C   -0.038383
    38  C   -0.095036
    39  C    0.018918
    40  C    0.052087
    41  C    0.003631
    42  C   -0.019431
    43  C    0.045650
    44  C   -0.028783
    45  C    0.090314
    46  C   -0.096606
    53  C    0.040068
    54  C   -0.028783
    55  C    0.084452
    56  C   -0.096606
    59  C    0.045650
    60  C   -0.038383
    61  C    0.090314
    62  C   -0.095036
    65  C    0.018918
    66  C    0.003631
    67  C    0.052087
    68  C   -0.019431
         Mulliken charges condensed to fragments:
      1      0.010755
      2     -0.010755
 Electronic spatial extent (au):  <R**2>=          27754.1255
 Charge=              0.0000 electrons
 Dipole moment (field-independent basis, Debye):
    X=             -0.6716    Y=             -1.0416    Z=              0.0000  Tot=              1.2393
 Quadrupole moment (field-independent basis, Debye-Ang):
   XX=           -246.2149   YY=           -248.4881   ZZ=           -219.0776
   XY=              0.3865   XZ=              0.0000   YZ=              0.0000
 Traceless Quadrupole moment (field-independent basis, Debye-Ang):
   XX=             -8.2880   YY=            -10.5613   ZZ=             18.8493
   XY=              0.3865   XZ=              0.0000   YZ=              0.0000
 Octapole moment (field-independent basis, Debye-Ang**2):
  XXX=            -72.7871  YYY=            196.7809  ZZZ=              0.0000  XYY=             16.4199
  XXY=            -77.4062  XXZ=              0.0000  XZZ=            -12.0576  YZZ=            -25.0294
  YYZ=              0.0000  XYZ=              0.0000
 Hexadecapole moment (field-independent basis, Debye-Ang**3):
 XXXX=          -2416.4910 YYYY=         -13180.2649 ZZZZ=         -20989.7954 XXXY=          -1845.5142
 XXXZ=              0.0000 YYYX=          -1857.7676 YYYZ=              0.0000 ZZZX=              0.0000
 ZZZY=              0.0000 XXYY=          -2677.9650 XXZZ=          -4336.8510 YYZZ=          -5943.5622
 XXYZ=              0.0000 YYXZ=              0.0000 ZZXY=           -543.9199
 N-N= 4.507506919208D+03 E-N=-1.294540312435D+04  KE= 1.686676242977D+03
 Symmetry A'   KE= 9.134135423707D+02
 Symmetry A"   KE= 7.732627006059D+02
 No NMR shielding tensors so no spin-rotation constants.
 Leave Link  601 at Wed Sep 27 16:39:46 2023, MaxMem=  3221225472 cpu:              54.1 elap:               1.4
 (Enter /home/center/opt/aarch64/apps/gaussian16/c01/g16/l122.exe)
 CPIOFr:  IOpCl= 0 IRwI=-1 IRwCP=  731 ICalc= -1 LCPTot=     1419224 Len1MO=     3708034 IndFrg=     1419224
 CPIOFr:  IOpCl= 0 IRwI=-1 IRwCP=  731 ICalc=  0 LCPTot=     1419224 Len1MO=     3708034 IndFrg=     5127258
 Counterpoise: doing calculation for fragment   1 using the basis set of the full-system, NewBq=T
 Leave Link  122 at Wed Sep 27 16:39:49 2023, MaxMem=  3221225472 cpu:               8.6 elap:               0.6
 (Enter /home/center/opt/aarch64/apps/gaussian16/c01/g16/l301.exe)
 Basis read from rwf:  (5D, 7F)
 No pseudopotential information found on rwf file.
 There are   528 symmetry adapted cartesian basis functions of A'  symmetry.
 There are   476 symmetry adapted cartesian basis functions of A"  symmetry.
 There are   504 symmetry adapted basis functions of A'  symmetry.
 There are   456 symmetry adapted basis functions of A"  symmetry.
   960 basis functions,  1632 primitive gaussians,  1004 cartesian basis functions
    73 alpha electrons       73 beta electrons
       nuclear repulsion energy      1494.3575061417 Hartrees.
 IExCor=  402 DFT=T Ex+Corr=B3LYP ExCW=0 ScaHFX=  0.200000
 ScaDFX=  0.800000  0.720000  1.000000  0.810000 ScalE2=  1.000000  1.000000
 IRadAn=      5 IRanWt=     -1 IRanGd=            0 ICorTp=0 IEmpDi=131
 NAtoms=   72 NActive=   72 NUniq=   40 SFac= 3.24D+00 NAtFMM=   60 NAOKFM=T Big=F
 Integral buffers will be    131072 words long.
 Raffenetti 2 integral format.
 Two-electron integral symmetry is turned on.
 R6Disp:  Grimme-D3 Dispersion energy=       -0.0303938888 Hartrees.
 Nuclear repulsion after empirical dispersion term =     1494.3271122529 Hartrees.
 No density basis found on file    718.
 Leave Link  301 at Wed Sep 27 16:39:52 2023, MaxMem=  3221225472 cpu:               4.2 elap:               0.2
 (Enter /home/center/opt/aarch64/apps/gaussian16/c01/g16/l302.exe)
 NPDir=0 NMtPBC=     1 NCelOv=     1 NCel=       1 NClECP=     1 NCelD=      1
         NCelK=      1 NCelE2=     1 NClLst=     1 CellRange=     0.0.
 One-electron integrals computed using PRISM.
 One-electron integral symmetry used in STVInt
 NBasis=   960 RedAO= T EigKep=  3.89D-05  NBF=   504   456
 NBsUse=   960 1.00D-06 EigRej= -1.00D+00 NBFU=   504   456
 Precomputing XC quadrature grid using
 IXCGrd= 4 IRadAn=           5 IRanWt=          -1 IRanGd=           0 AccXCQ= 0.00D+00.
 Generated NRdTot=       0 NPtTot=           0 NUsed=           0 NTot=          32
 NSgBfM=   987   987   987   987   987 MxSgAt=    72 MxSgA2=    72.
 Leave Link  302 at Wed Sep 27 16:39:56 2023, MaxMem=  3221225472 cpu:              59.3 elap:               1.6
 (Enter /home/center/opt/aarch64/apps/gaussian16/c01/g16/l303.exe)
 DipDrv:  MaxL=1.
 Leave Link  303 at Wed Sep 27 16:39:58 2023, MaxMem=  3221225472 cpu:              12.3 elap:               0.4
 (Enter /home/center/opt/aarch64/apps/gaussian16/c01/g16/l401.exe)
 ExpMin= 1.03D-01 ExpMax= 4.56D+03 ExpMxC= 6.82D+02 IAcc=3 IRadAn=         5 AccDes= 0.00D+00
 Harris functional with IExCor=  402 and IRadAn=       5 diagonalized for initial guess.
 HarFok:  IExCor=  402 AccDes= 0.00D+00 IRadAn=         5 IDoV= 1 UseB2=F ITyADJ=14
 ICtDFT=  3500011 ScaDFX=  1.000000  1.000000  1.000000  1.000000
 FoFCou: FMM=F IPFlag=           0 FMFlag=      100000 FMFlg1=        2000
         NFxFlg=           0 DoJE=T BraDBF=F KetDBF=T FulRan=T
         wScrn=  0.000000 ICntrl=       500 IOpCl=  0 I1Cent=   200000004 NGrid=           0
         NMat0=    1 NMatS0=      1 NMatT0=    0 NMatD0=    1 NMtDS0=    0 NMtDT0=    0
 Petite list used in FoFCou.
 Harris En= -847.065380419966    
 JPrj=0 DoOrth=F DoCkMO=F.
 Initial guess orbital symmetries:
       Occupied  (A") (A') (A') (A") (A") (A') (A") (A') (A') (A")
                 (A") (A') (A') (A') (A") (A') (A") (A') (A") (A')
                 (A') (A") (A') (A") (A') (A") (A') (A') (A") (A')
                 (A") (A") (A') (A') (A") (A") (A') (A") (A') (A')
                 (A') (A") (A") (A") (A') (A') (A") (A') (A') (A")
                 (A') (A") (A") (A') (A') (A") (A') (A") (A') (A")
                 (A") (A') (A') (A") (A') (A") (A') (A") (A') (A')
                 (A") (A") (A')
       Virtual   (A') (A") (A") (A') (A') (A") (A') (A") (A') (A")
                 (A') (A') (A") (A') (A") (A') (A") (A') (A') (A")
                 (A") (A') (A') (A") (A") (A') (A') (A') (A') (A")
                 (A') (A") (A') (A") (A") (A') (A') (A") (A") (A')
                 (A') (A") (A") (A') (A") (A') (A") (A') (A") (A')
                 (A') (A") (A") (A') (A') (A") (A') (A') (A") (A')
                 (A') (A") (A') (A") (A") (A') (A') (A") (A") (A')
                 (A') (A") (A") (A") (A') (A') (A') (A') (A') (A")
                 (A') (A') (A") (A") (A') (A') (A") (A") (A') (A")
                 (A") (A") (A") (A') (A") (A') (A") (A') (A') (A')
                 (A') (A") (A') (A') (A") (A') (A') (A') (A") (A")
                 (A") (A') (A') (A") (A') (A") (A") (A') (A") (A")
                 (A") (A') (A') (A") (A') (A') (A") (A') (A') (A")
                 (A") (A') (A') (A') (A") (A') (A') (A") (A') (A')
                 (A") (A') (A") (A') (A") (A") (A') (A") (A') (A")
                 (A') (A") (A") (A") (A') (A") (A') (A') (A') (A")
                 (A') (A') (A") (A') (A") (A") (A') (A") (A') (A")
                 (A') (A") (A') (A") (A') (A") (A') (A") (A') (A')
                 (A') (A") (A") (A') (A") (A") (A') (A") (A') (A')
                 (A") (A') (A") (A') (A') (A') (A") (A") (A') (A')
                 (A") (A") (A") (A") (A') (A") (A') (A") (A') (A')
                 (A') (A') (A") (A") (A") (A') (A") (A') (A") (A")
                 (A') (A') (A') (A') (A") (A") (A') (A') (A') (A")
                 (A') (A") (A') (A") (A") (A') (A') (A") (A") (A")
                 (A') (A") (A') (A') (A") (A') (A') (A") (A") (A")
                 (A") (A') (A") (A') (A') (A') (A') (A') (A") (A")
                 (A') (A") (A") (A') (A') (A') (A") (A") (A') (A")
                 (A') (A') (A") (A") (A") (A') (A") (A') (A') (A")
                 (A") (A') (A') (A") (A') (A") (A') (A") (A') (A')
                 (A") (A') (A") (A') (A') (A") (A') (A') (A') (A")
                 (A") (A') (A") (A') (A") (A') (A") (A") (A") (A")
                 (A') (A") (A') (A') (A") (A') (A') (A') (A") (A')
                 (A") (A') (A") (A') (A") (A') (A") (A') (A") (A')
                 (A") (A') (A') (A') (A') (A") (A") (A') (A") (A')
                 (A') (A") (A") (A") (A') (A") (A") (A') (A') (A')
                 (A') (A") (A") (A') (A") (A') (A") (A') (A') (A')
                 (A') (A") (A') (A") (A") (A") (A') (A") (A") (A')
                 (A") (A') (A') (A") (A') (A") (A") (A') (A") (A')
                 (A") (A') (A') (A") (A") (A') (A') (A") (A') (A')
                 (A") (A") (A') (A") (A') (A') (A") (A") (A') (A")
                 (A') (A') (A") (A") (A') (A") (A") (A') (A") (A')
                 (A') (A") (A') (A') (A') (A") (A") (A') (A") (A')
                 (A") (A') (A") (A") (A') (A") (A') (A") (A') (A")
                 (A") (A') (A') (A') (A') (A") (A') (A") (A") (A')
                 (A") (A') (A') (A') (A") (A') (A") (A") (A") (A")
                 (A') (A') (A') (A') (A') (A") (A') (A") (A") (A")
                 (A') (A") (A') (A") (A') (A") (A') (A") (A') (A')
                 (A") (A') (A") (A") (A') (A") (A') (A") (A') (A")
                 (A') (A") (A") (A') (A") (A') (A') (A") (A") (A')
                 (A") (A') (A') (A") (A') (A") (A') (A') (A") (A")
                 (A') (A") (A') (A") (A') (A") (A') (A") (A') (A")
                 (A') (A') (A") (A") (A') (A") (A") (A') (A") (A')
                 (A') (A") (A') (A") (A') (A') (A") (A') (A") (A')
                 (A') (A") (A") (A') (A') (A") (A') (A') (A') (A")
                 (A") (A") (A') (A') (A') (A") (A") (A') (A") (A')
                 (A") (A") (A') (A") (A') (A') (A") (A') (A') (A')
                 (A") (A") (A') (A") (A") (A') (A") (A') (A") (A")
                 (A') (A') (A") (A') (A') (A') (A') (A") (A") (A')
                 (A") (A') (A") (A") (A') (A') (A") (A") (A") (A")
                 (A') (A') (A') (A') (A') (A') (A") (A') (A") (A")
                 (A") (A') (A") (A") (A') (A') (A") (A') (A") (A')
                 (A') (A") (A') (A") (A') (A") (A') (A') (A") (A")
                 (A') (A') (A") (A") (A') (A") (A") (A') (A') (A")
                 (A") (A') (A") (A") (A") (A') (A') (A') (A') (A")
                 (A') (A") (A') (A') (A") (A") (A') (A") (A') (A")
                 (A') (A") (A') (A") (A') (A") (A') (A") (A") (A')
                 (A") (A') (A") (A') (A") (A') (A") (A") (A') (A')
                 (A') (A") (A") (A') (A') (A") (A') (A") (A') (A')
                 (A") (A') (A') (A") (A") (A') (A") (A') (A') (A")
                 (A') (A") (A') (A') (A") (A") (A') (A") (A') (A')
[...]
                 (A') (A') (A") (A") (A') (A") (A') (A") (A') (A')
                 (A") (A") (A')
       Virtual   (A') (A") (A") (A') (A') (A") (A') (A') (A') (A")
                 (A") (A') (A") (A') (A") (A') (A") (A") (A') (A")
                 (A') (A') (A") (A') (A") (A') (A') (A') (A') (A")
                 (A") (A") (A") (A') (A') (A") (A') (A") (A') (A")
                 (A') (A') (A') (A") (A') (A") (A") (A') (A') (A")
                 (A") (A') (A') (A") (A') (A") (A") (A") (A') (A")
                 (A') (A') (A') (A') (A') (A") (A') (A') (A") (A")
                 (A") (A') (A') (A') (A") (A') (A") (A") (A") (A')
                 (A') (A") (A') (A") (A") (A') (A") (A') (A') (A')
                 (A') (A') (A") (A") (A") (A") (A') (A") (A') (A")
                 (A') (A') (A') (A") (A") (A') (A') (A") (A') (A")
                 (A') (A") (A") (A") (A') (A') (A") (A') (A') (A")
                 (A') (A") (A") (A') (A') (A") (A') (A") (A') (A")
                 (A") (A') (A') (A') (A') (A") (A") (A") (A') (A")
                 (A') (A") (A') (A") (A') (A') (A") (A") (A') (A")
                 (A') (A") (A') (A") (A') (A') (A") (A') (A") (A")
                 (A') (A") (A') (A') (A") (A") (A') (A") (A') (A")
                 (A') (A') (A") (A') (A') (A") (A") (A') (A') (A')
                 (A") (A') (A") (A") (A") (A") (A') (A") (A') (A')
                 (A") (A') (A") (A') (A') (A') (A") (A') (A") (A')
                 (A") (A") (A') (A') (A") (A") (A') (A') (A") (A')
                 (A') (A') (A') (A") (A") (A") (A") (A') (A') (A")
                 (A') (A") (A") (A') (A") (A') (A") (A') (A") (A')
                 (A") (A') (A') (A") (A') (A") (A") (A') (A') (A")
                 (A") (A') (A') (A") (A") (A') (A") (A") (A") (A')
                 (A') (A") (A') (A') (A") (A') (A') (A") (A') (A")
                 (A") (A') (A") (A') (A') (A") (A") (A") (A') (A')
                 (A") (A') (A') (A") (A") (A") (A') (A") (A') (A')
                 (A") (A') (A") (A') (A") (A') (A') (A') (A") (A')
                 (A") (A") (A') (A') (A") (A") (A') (A") (A') (A")
                 (A') (A') (A") (A") (A') (A') (A") (A') (A') (A')
                 (A") (A") (A') (A") (A') (A") (A') (A") (A') (A')
                 (A') (A") (A") (A") (A') (A") (A') (A') (A') (A")
                 (A") (A') (A") (A') (A') (A") (A') (A") (A") (A')
                 (A') (A") (A') (A") (A") (A') (A') (A") (A') (A")
                 (A') (A") (A') (A") (A') (A") (A") (A') (A') (A")
                 (A') (A") (A') (A') (A") (A") (A') (A") (A') (A')
                 (A") (A') (A") (A') (A') (A") (A') (A") (A') (A")
                 (A") (A') (A") (A') (A") (A') (A") (A') (A') (A")
                 (A") (A') (A") (A') (A') (A") (A") (A') (A') (A")
                 (A') (A") (A') (A") (A') (A') (A")
 The electronic state is 1-A'.
 Alpha  occ. eigenvalues --  -10.18931 -10.18930 -10.18896 -10.18895 -10.18848
 Alpha  occ. eigenvalues --  -10.18848 -10.18813 -10.18813 -10.17956 -10.17955
 Alpha  occ. eigenvalues --  -10.17920 -10.17920 -10.17919 -10.17919 -10.17875
 Alpha  occ. eigenvalues --  -10.17875 -10.17863 -10.17863 -10.17808 -10.17808
 Alpha  occ. eigenvalues --  -10.17781 -10.17781  -0.89340  -0.87865  -0.85549
 Alpha  occ. eigenvalues --   -0.82415  -0.79820  -0.78521  -0.78314  -0.75991
 Alpha  occ. eigenvalues --   -0.74255  -0.72901  -0.69196  -0.67344  -0.62728
 Alpha  occ. eigenvalues --   -0.62370  -0.61108  -0.59964  -0.59301  -0.57689
 Alpha  occ. eigenvalues --   -0.52709  -0.52573  -0.52293  -0.49654  -0.48513
 Alpha  occ. eigenvalues --   -0.47160  -0.46110  -0.45590  -0.45476  -0.43928
 Alpha  occ. eigenvalues --   -0.43182  -0.42578  -0.41808  -0.41572  -0.41386
 Alpha  occ. eigenvalues --   -0.40692  -0.40405  -0.39579  -0.38193  -0.36732
 Alpha  occ. eigenvalues --   -0.36341  -0.35550  -0.34094  -0.33809  -0.33058
 Alpha  occ. eigenvalues --   -0.32930  -0.31612  -0.29665  -0.28406  -0.26623
 Alpha  occ. eigenvalues --   -0.24364  -0.22582  -0.17855
 Alpha virt. eigenvalues --   -0.09755  -0.04464  -0.02747  -0.00147   0.02073
 Alpha virt. eigenvalues --    0.02370   0.03189   0.04746   0.04859   0.04871
 Alpha virt. eigenvalues --    0.06161   0.06575   0.07968   0.08162   0.08303
 Alpha virt. eigenvalues --    0.09607   0.10049   0.11524   0.11533   0.13796
 Alpha virt. eigenvalues --    0.14111   0.14670   0.18092   0.18194   0.18832
 Alpha virt. eigenvalues --    0.19391   0.22815   0.23002   0.24379   0.24942
 Alpha virt. eigenvalues --    0.25581   0.27528   0.27575   0.28012   0.28228
 Alpha virt. eigenvalues --    0.28947   0.29389   0.30158   0.30759   0.31175
 Alpha virt. eigenvalues --    0.32897   0.34528   0.36420   0.36484   0.37134
 Alpha virt. eigenvalues --    0.37503   0.37629   0.37651   0.38116   0.38643
 Alpha virt. eigenvalues --    0.39094   0.39439   0.39739   0.40236   0.40435
 Alpha virt. eigenvalues --    0.41918   0.41926   0.41940   0.42289   0.42318
 Alpha virt. eigenvalues --    0.42643   0.43748   0.44233   0.44835   0.45295
 Alpha virt. eigenvalues --    0.45683   0.45924   0.45953   0.46379   0.47165
 Alpha virt. eigenvalues --    0.47805   0.47809   0.47978   0.48073   0.48231
 Alpha virt. eigenvalues --    0.48568   0.49414   0.49572   0.51377   0.51846
 Alpha virt. eigenvalues --    0.52370   0.53118   0.53671   0.55998   0.57923
 Alpha virt. eigenvalues --    0.57955   0.59048   0.59201   0.60433   0.60585
 Alpha virt. eigenvalues --    0.60693   0.61101   0.61690   0.62105   0.62173
 Alpha virt. eigenvalues --    0.63432   0.63481   0.64458   0.64535   0.65533
 Alpha virt. eigenvalues --    0.66693   0.66910   0.67680   0.67724   0.70658
 Alpha virt. eigenvalues --    0.71305   0.71405   0.71494   0.72803   0.73989
 Alpha virt. eigenvalues --    0.75405   0.75894   0.76289   0.77801   0.77809
 Alpha virt. eigenvalues --    0.78943   0.79160   0.79723   0.81162   0.81509
 Alpha virt. eigenvalues --    0.82881   0.83001   0.84383   0.84585   0.84713
 Alpha virt. eigenvalues --    0.88087   0.89711   0.89765   0.91536   0.92083
 Alpha virt. eigenvalues --    0.92578   0.93749   0.95806   0.96107   0.96442
 Alpha virt. eigenvalues --    0.96590   0.96905   0.98547   1.00356   1.01118
 Alpha virt. eigenvalues --    1.02686   1.03027   1.03354   1.04405   1.05244
 Alpha virt. eigenvalues --    1.05439   1.05525   1.05950   1.07395   1.07547
 Alpha virt. eigenvalues --    1.07686   1.08438   1.10005   1.10036   1.12070
 Alpha virt. eigenvalues --    1.13223   1.13544   1.13650   1.14526   1.15341
 Alpha virt. eigenvalues --    1.17432   1.18332   1.19657   1.20432   1.23014
 Alpha virt. eigenvalues --    1.23618   1.27884   1.28234   1.30579   1.32076
 Alpha virt. eigenvalues --    1.32743   1.34942   1.37641   1.39236   1.39896
 Alpha virt. eigenvalues --    1.39942   1.40725   1.42751   1.43476   1.43554
 Alpha virt. eigenvalues --    1.45057   1.46086   1.47119   1.47538   1.48841
 Alpha virt. eigenvalues --    1.49280   1.49417   1.50258   1.50674   1.52268
 Alpha virt. eigenvalues --    1.52650   1.53402   1.54331   1.54372   1.54781
 Alpha virt. eigenvalues --    1.54807   1.57107   1.57715   1.58569   1.59882
 Alpha virt. eigenvalues --    1.60106   1.62692   1.63242   1.64856   1.66641
 Alpha virt. eigenvalues --    1.69292   1.69605   1.69709   1.70649   1.71804
 Alpha virt. eigenvalues --    1.72459   1.72619   1.73075   1.73096   1.73680
 Alpha virt. eigenvalues --    1.77494   1.78519   1.79157   1.79419   1.80511
 Alpha virt. eigenvalues --    1.81616   1.81887   1.82058   1.83581   1.84039
 Alpha virt. eigenvalues --    1.85487   1.87392   1.87456   1.87577   1.87728
 Alpha virt. eigenvalues --    1.88131   1.88613   1.90743   1.91387   1.92190
 Alpha virt. eigenvalues --    1.92193   1.92572   1.92670   1.93517   1.93938
 Alpha virt. eigenvalues --    1.94544   1.95483   1.97262   1.99429   2.00088
 Alpha virt. eigenvalues --    2.00602   2.01362   2.03019   2.05757   2.08293
 Alpha virt. eigenvalues --    2.09111   2.09256   2.09792   2.12192   2.14098
 Alpha virt. eigenvalues --    2.15528   2.15584   2.17200   2.19751   2.20833
 Alpha virt. eigenvalues --    2.21576   2.22525   2.23381   2.24503   2.26441
 Alpha virt. eigenvalues --    2.26972   2.27242   2.27719   2.28046   2.29391
 Alpha virt. eigenvalues --    2.33301   2.35725   2.39155   2.39384   2.40817
 Alpha virt. eigenvalues --    2.42649   2.43076   2.45776   2.45994   2.46870
 Alpha virt. eigenvalues --    2.51623   2.51954   2.53354   2.53485   2.55138
 Alpha virt. eigenvalues --    2.56159   2.58701   2.58838   2.59764   2.59776
 Alpha virt. eigenvalues --    2.60682   2.61147   2.61719   2.62222   2.63349
 Alpha virt. eigenvalues --    2.63999   2.64478   2.66054   2.66794   2.67121
 Alpha virt. eigenvalues --    2.67374   2.68356   2.68872   2.68876   2.69372
 Alpha virt. eigenvalues --    2.69557   2.69907   2.70083   2.70281   2.73482
 Alpha virt. eigenvalues --    2.74771   2.74836   2.76066   2.77101   2.77577
 Alpha virt. eigenvalues --    2.78232   2.78455   2.78850   2.80822   2.82359
 Alpha virt. eigenvalues --    2.85535   2.85993   2.86737   2.87294   2.90966
 Alpha virt. eigenvalues --    2.91783   2.92195   2.93676   2.95232   2.95887
 Alpha virt. eigenvalues --    2.99270   2.99858   3.03165   3.05604   3.06852
 Alpha virt. eigenvalues --    3.07371   3.15988   3.16029   3.16647   3.19843
 Alpha virt. eigenvalues --    3.20017   3.23601   3.29134   3.29680   3.31610
 Alpha virt. eigenvalues --    3.35095   3.35458   3.35677   3.35858   3.38023
 Alpha virt. eigenvalues --    3.39887   3.41413   3.44960   3.45362   3.47993
 Alpha virt. eigenvalues --    3.48278   3.50401   3.53073   3.57439   3.58649
 Alpha virt. eigenvalues --    3.61466   3.62620   3.63208   3.63698   3.65910
 Alpha virt. eigenvalues --    3.67534   3.67678   4.00384   4.00442   4.01859
 Alpha virt. eigenvalues --    4.02182   4.16133   4.16678   4.17360   4.21240
 Alpha virt. eigenvalues --    4.22396   4.22517   4.25488   4.38492   4.62290
 Alpha virt. eigenvalues --    4.79179   4.79740   4.80562   4.82562   4.83014
 Alpha virt. eigenvalues --   23.39176  23.54541  23.69085  23.77378  23.80419
 Alpha virt. eigenvalues --   23.81537  23.86099  23.89067  23.89154  23.92210
 Alpha virt. eigenvalues --   23.97563  23.98365  24.09049  24.09932  24.10529
 Alpha virt. eigenvalues --   24.12220  24.13779  24.14375  24.15775  24.15810
 Alpha virt. eigenvalues --   24.20452  24.20497
          Condensed to atoms (all electrons):
 Mulliken charges:
               1
     1  C    0.000000
     2  C    0.000000
     3  C    0.000000
     4  C    0.000000
     5  C    0.000000
     6  C    0.000000
     7  C    0.000000
     8  C    0.000000
     9  C    0.000000
    10  C    0.000000
    11  H    0.000000
    12  H    0.000000
    13  H    0.000000
    14  H    0.000000
    15  H    0.000000
    16  H    0.000000
    17  C    0.000000
    18  C    0.000000
    19  C    0.000000
    20  C    0.000000
    21  H    0.000000
    22  H    0.000000
    23  C    0.000000
    24  C    0.000000
    25  C    0.000000
    26  C    0.000000
    27  H    0.000000
    28  H    0.000000
    29  C    0.000000
    30  C    0.000000
    31  C    0.000000
    32  C    0.000000
    33  H    0.000000
    34  H    0.000000
    35  H    0.000000
    36  H    0.000000
    37  C   -0.059168
    38  C   -0.059168
    39  C   -0.055977
    40  C   -0.055977
    41  C   -0.092198
    42  C   -0.092198
    43  C   -0.016525
    44  C   -0.054498
    45  C   -0.016525
    46  C   -0.054498
    47  H    0.082122
    48  H    0.074853
    49  H    0.074853
    50  H    0.082122
    51  H    0.094847
    52  H    0.094847
    53  C   -0.020341
    54  C   -0.054498
    55  C   -0.020341
    56  C   -0.054498
    57  H    0.073428
    58  H    0.073428
    59  C   -0.016525
    60  C   -0.059168
    61  C   -0.016525
    62  C   -0.059168
    63  H    0.074853
    64  H    0.074853
    65  C   -0.055977
    66  C   -0.092198
    67  C   -0.055977
    68  C   -0.092198
    69  H    0.082122
    70  H    0.094847
    71  H    0.094847
    72  H    0.082122
 Sum of Mulliken charges =   0.00000
 Mulliken charges with hydrogens summed into heavy atoms:
               1
     1  C    0.000000
     2  C    0.000000
     3  C    0.000000
     4  C    0.000000
     5  C    0.000000
     6  C    0.000000
     7  C    0.000000
     8  C    0.000000
     9  C    0.000000
    10  C    0.000000
    17  C    0.000000
    18  C    0.000000
    19  C    0.000000
    20  C    0.000000
    23  C    0.000000
    24  C    0.000000
    25  C    0.000000
    26  C    0.000000
    29  C    0.000000
    30  C    0.000000
    31  C    0.000000
    32  C    0.000000
    37  C   -0.059168
    38  C   -0.059168
    39  C    0.026144
    40  C    0.026144
    41  C    0.002649
    42  C    0.002649
    43  C    0.058328
    44  C   -0.054498
    45  C    0.058328
    46  C   -0.054498
    53  C    0.053087
    54  C   -0.054498
    55  C    0.053087
    56  C   -0.054498
    59  C    0.058328
    60  C   -0.059168
    61  C    0.058328
    62  C   -0.059168
    65  C    0.026144
    66  C    0.002649
    67  C    0.026144
    68  C    0.002649
         Mulliken charges condensed to fragments:
      1      0.000000
      2      0.000000
 Electronic spatial extent (au):  <R**2>=          13241.0873
 Charge=              0.0000 electrons
 Dipole moment (field-independent basis, Debye):
    X=              0.0000    Y=              0.0000    Z=              0.0000  Tot=              0.0000
 Quadrupole moment (field-independent basis, Debye-Ang):
   XX=           -136.3921   YY=           -110.7480   ZZ=           -109.0115
   XY=              0.0000   XZ=              0.0000   YZ=              0.0000
 Traceless Quadrupole moment (field-independent basis, Debye-Ang):
   XX=            -17.6749   YY=              7.9692   ZZ=              9.7057
   XY=              0.0000   XZ=              0.0000   YZ=              0.0000
 Octapole moment (field-independent basis, Debye-Ang**2):
  XXX=            795.6610  YYY=            646.0631  ZZZ=              0.0000  XYY=            215.3544
  XXY=            265.2203  XXZ=              0.0000  XZZ=            211.9776  YZZ=            211.9776
  YYZ=              0.0000  XYZ=              0.0000
 Hexadecapole moment (field-independent basis, Debye-Ang**3):
 XXXX=          -3248.7987 YYYY=          -3629.3128 ZZZZ=         -10461.4324 XXXY=          -1547.1974
 XXXZ=              0.0000 YYYX=          -1256.2979 YYYZ=              0.0000 ZZZX=              0.0000
 ZZZY=              0.0000 XXYY=          -1190.9138 XXZZ=          -2620.1316 YYZZ=          -2381.4140
 XXYZ=              0.0000 YYXZ=              0.0000 ZZXY=           -412.1996
 N-N= 1.494327112237D+03 E-N=-4.953709176031D+03  KE= 8.433374905124D+02
 Symmetry A'   KE= 4.567052305464D+02
 Symmetry A"   KE= 3.866322599660D+02
 No NMR shielding tensors so no spin-rotation constants.
 Leave Link  601 at Wed Sep 27 16:56:50 2023, MaxMem=  3221225472 cpu:              17.7 elap:               0.5
 (Enter /home/center/opt/aarch64/apps/gaussian16/c01/g16/l122.exe)
 CPIOFr:  IOpCl= 0 IRwI=-1 IRwCP=  731 ICalc=  4 LCPTot=     1419224 Len1MO=     3708034 IndFrg=    19959394
 Restoring MOs from calculation   1 to rwf.
 CPIOFr:  IOpCl= 0 IRwI=-2 IRwCP=  731 ICalc=  0 LCPTot=     1419224 Len1MO=     3708034 IndFrg=     5127258
 Counterpoise corrected energy =   -1694.051175511744
                   BSSE energy =       0.001888214200
              sum of fragments =   -1694.039683044262
           complexation energy =      -8.40 kcal/mole (raw)
           complexation energy =      -7.21 kcal/mole (corrected)
 Leave Link  122 at Wed Sep 27 16:56:53 2023, MaxMem=  3221225472 cpu:               8.3 elap:               0.4
 (Enter /home/center/opt/aarch64/apps/gaussian16/c01/g16/l9999.exe)

 Test job not archived.
 1\1\GINC-FX0507\SP\RB3LYP\6-311G(d,p)\C44H28\Z40145W\27-Sep-2023\0\\#P
  TEST b3lyp/6-311G** EmpiricalDispersion=GD3 counterpoise=2\\pentacene
 _A1=0_A2=0_A3=45_p2\\0,1\C,0,-0.5039478476,0.5239478476,-3.6612755801\
 C,0,0.5239480325,-0.5039480325,-3.6612755629\C,0,-0.9861248463,1.00612
 48463,-4.9235927708\C,0,1.0061250889,-0.9861250889,-4.9235926697\C,0,-
 0.4963213507,0.5163213507,-6.096356521\C,0,0.5163216812,-0.4963216812,
 -6.0963564796\C,0,-0.9844684311,1.0044684311,-2.4533174875\C,0,-0.5044
 88426,0.524488426,-1.2140288145\C,0,1.0044685359,-0.9844685359,-2.4533
 173917\C,0,0.5244885437,-0.5044885437,-1.2140288362\H,0,-1.7533559667,
 1.7733559667,-4.9232600459\H,0,-1.7521866813,1.7721866813,-2.453928581
 5\H,0,1.7721859268,-1.7521859268,-2.4539284818\H,0,1.7733558421,-1.753
 3558421,-4.9232597785\H,0,0.8905568758,-0.8705568758,-7.0425276922\H,0
 ,-0.8705565046,0.8905565046,-7.042527775\C,0,-0.9848184961,1.004818496
 1,0.0099998782\C,0,-0.5044883957,0.5244883957,1.2340295553\C,0,1.00481
 85643,-0.9848185643,0.0099998696\C,0,0.5244885146,-0.5044885146,1.2340
 295261\H,0,-1.7524699697,1.7724699697,0.0099999205\H,0,1.772468921,-1.
 752468921,0.0099999641\C,0,-0.9844683048,1.0044683048,2.4733171385\C,0
 ,-0.5039477114,0.5239477114,3.681276331\C,0,1.0044684211,-0.9844684211
 ,2.4733170835\C,0,0.5239479079,-0.5039479079,3.6812763217\H,0,-1.75218
 65527,1.7721865527,2.4739285326\H,0,1.7721858092,-1.7521858092,2.47392
 83796\C,0,-0.9861245177,1.0061245177,4.9435920588\C,0,-0.4963209372,0.
 5163209372,6.116356633\C,0,1.0061247659,-0.9861247659,4.9435919377\C,0
 ,0.5163212637,-0.4963212637,6.1163566075\H,0,-1.7533556504,1.773355650
 4,4.9432601504\H,0,-0.8705567426,0.8905567426,7.0625274368\H,0,0.89055
 70967,-0.8705570967,7.0625272142\H,0,1.7733555414,-1.7533555414,4.9432
 599297\C,0,4.9960521524,0.5239478476,-3.6612755801\C,0,6.0239480325,-0
 .5039480325,-3.6612755629\C,0,4.5138751537,1.0061248463,-4.9235927708\
 C,0,6.5061250889,-0.9861250889,-4.9235926697\C,0,5.0036786493,0.516321
 3507,-6.096356521\C,0,6.0163216812,-0.4963216812,-6.0963564796\C,0,4.5
 155315689,1.0044684311,-2.4533174875\C,0,4.995511574,0.524488426,-1.21
 40288145\C,0,6.5044685359,-0.9844685359,-2.4533173917\C,0,6.0244885437
 ,-0.5044885437,-1.2140288362\H,0,3.7466440333,1.7733559667,-4.92326004
 59\H,0,3.7478133187,1.7721866813,-2.4539285815\H,0,7.2721859268,-1.752
 1859268,-2.4539284818\H,0,7.2733558421,-1.7533558421,-4.9232597785\H,0
 ,6.3905568758,-0.8705568758,-7.0425276922\H,0,4.6294434954,0.890556504
 6,-7.042527775\C,0,4.5151815039,1.0048184961,0.0099998782\C,0,4.995511
 6043,0.5244883957,1.2340295553\C,0,6.5048185643,-0.9848185643,0.009999
 8696\C,0,6.0244885146,-0.5044885146,1.2340295261\H,0,3.7475300303,1.77
 24699697,0.0099999205\H,0,7.272468921,-1.752468921,0.0099999641\C,0,4.
 5155316952,1.0044683048,2.4733171385\C,0,4.9960522886,0.5239477114,3.6
 81276331\C,0,6.5044684211,-0.9844684211,2.4733170835\C,0,6.0239479079,
 -0.5039479079,3.6812763217\H,0,3.7478134473,1.7721865527,2.4739285326\
 H,0,7.2721858092,-1.7521858092,2.4739283796\C,0,4.5138754823,1.0061245
 177,4.9435920588\C,0,5.0036790628,0.5163209372,6.116356633\C,0,6.50612
 47659,-0.9861247659,4.9435919377\C,0,6.0163212637,-0.4963212637,6.1163
 566075\H,0,3.7466443496,1.7733556504,4.9432601504\H,0,4.6294432574,0.8
 905567426,7.0625274368\H,0,6.3905570967,-0.8705570967,7.0625272142\H,0
 ,7.2733555414,-1.7533555414,4.9432599297\\Version=Fujitsu-Arm-G16RevC.
 01\State=1-A'\HF=-847.0198415\RMSD=3.181e-09\Dipole=-0.0000009,0.00000
 11,0.\Quadrupole=-8.6579023,-5.5609791,14.2188813,-17.615403,0.,0.\PG=
 CS [SG(C4H4),X(C40H24)]\\@


 Democracy is the recurrent suspicion that more than half of the people
 are right more than half of the time.
 -- E. B. White
 Job cpu time:       0 days  3 hours 24 minutes  5.5 seconds.
 Elapsed time:       0 days  0 hours  5 minutes 20.3 seconds.
 File lengths (MBytes):  RWF=    718 Int=      0 D2E=      0 Chk=    208 Scr=      1
 Normal termination of Gaussian 16 at Wed Sep 27 16:56:59 2023.
