 Entering Gaussian System, Link 0=g16
 Initial command:
 /home/center/opt/aarch64/apps/gaussian16/c01/g16/l1.exe "/data/tmp/Gtmp/1006995/Gau-50.inp" -scrdir="/data/tmp/Gtmp/1006995/"
 Entering Link 1 = /home/center/opt/aarch64/apps/gaussian16/c01/g16/l1.exe PID=        51.
  
 Copyright (c) 1988-2019, Gaussian, Inc.  All Rights Reserved.
  
 This is part of the Gaussian(R) 16 program.  It is based on
 the Gaussian(R) 09 system (copyright 2009, Gaussian, Inc.),
 the Gaussian(R) 03 system (copyright 2003, Gaussian, Inc.),
 the Gaussian(R) 98 system (copyright 1998, Gaussian, Inc.),
 the Gaussian(R) 94 system (copyright 1995, Gaussian, Inc.),
 the Gaussian 92(TM) system (copyright 1992, Gaussian, Inc.),
 the Gaussian 90(TM) system (copyright 1990, Gaussian, Inc.),
 the Gaussian 88(TM) system (copyright 1988, Gaussian, Inc.),
 the Gaussian 86(TM) system (copyright 1986, Carnegie Mellon
 University), and the Gaussian 82(TM) system (copyright 1983,
 Carnegie Mellon University). Gaussian is a federally registered
 trademark of Gaussian, Inc.
  
 This software contains proprietary and confidential information,
 including trade secrets, belonging to Gaussian, Inc.
  
 This software is provided under written license and may be
 used, copied, transmitted, or stored only in accord with that
 written license.
  
 The following legend is applicable only to US Government
 contracts under FAR:
  
                    RESTRICTED RIGHTS LEGEND
  
 Use, reproduction and disclosure by the US Government is
 subject to restrictions as set forth in subparagraphs (a)
 and (c) of the Commercial Computer Software - Restricted
 Rights clause in FAR 52.227-19.
  
 Gaussian, Inc.
 340 Quinnipiac St., Bldg. 40, Wallingford CT 06492
  
  
 ---------------------------------------------------------------
 Warning -- This program may not be used in any manner that
 competes with the business of Gaussian, Inc. or will provide
 assistance to any competitor of Gaussian, Inc.  The licensee
 of this program is prohibited from giving any competitor of
 Gaussian, Inc. access to this program.  By using this program,
 the user acknowledges that Gaussian, Inc. is engaged in the
 business of creating and licensing software in the field of
 computational chemistry and represents and warrants to the
 licensee that it is not a competitor of Gaussian, Inc. and that
 it will not use this program in any manner prohibited above.
 ---------------------------------------------------------------
  

 Cite this work as:
 Gaussian 16, Revision C.01,
 M. J. Frisch, G. W. Trucks, H. B. Schlegel, G. E. Scuseria, 
 M. A. Robb, J. R. Cheeseman, G. Scalmani, V. Barone, 
 G. A. Petersson, H. Nakatsuji, X. Li, M. Caricato, A. V. Marenich, 
 J. Bloino, B. G. Janesko, R. Gomperts, B. Mennucci, H. P. Hratchian, 
 J. V. Ortiz, A. F. Izmaylov, J. L. Sonnenberg, D. Williams-Young, 
 F. Ding, F. Lipparini, F. Egidi, J. Goings, B. Peng, A. Petrone, 
 T. Henderson, D. Ranasinghe, V. G. Zakrzewski, J. Gao, N. Rega, 
 G. Zheng, W. Liang, M. Hada, M. Ehara, K. Toyota, R. Fukuda, 
 J. Hasegawa, M. Ishida, T. Nakajima, Y. Honda, O. Kitao, H. Nakai, 
 T. Vreven, K. Throssell, J. A. Montgomery, Jr., J. E. Peralta, 
 F. Ogliaro, M. J. Bearpark, J. J. Heyd, E. N. Brothers, K. N. Kudin, 
 V. N. Staroverov, T. A. Keith, R. Kobayashi, J. Normand, 
 K. Raghavachari, A. P. Rendell, J. C. Burant, S. S. Iyengar, 
 J. Tomasi, M. Cossi, J. M. Millam, M. Klene, C. Adamo, R. Cammi, 
 J. W. Ochterski, R. L. Martin, K. Morokuma, O. Farkas, 
 J. B. Foresman, and D. J. Fox, Gaussian, Inc., Wallingford CT, 2019.
 
 ************************************************
 Gaussian 16:  Fujitsu-Arm-G16RevC.01  3-Jul-2019
                   27-Sep-2023 
 ************************************************
 %mem=24GB
 %nproc=42
 Will use up to   42 processors via shared memory.
 -------------------------------------------------------------
 #P TEST b3lyp/6-311G** EmpiricalDispersion=GD3 counterpoise=2
 -------------------------------------------------------------
 1/38=1,62=2,172=1/1;
 2/12=2,17=6,18=5,40=1/2;
 1/38=1,53=2,62=2,63=1/22;
 3/5=4,6=6,7=101,11=2,25=1,30=1,74=-5,124=31/1,2,3;
 4//1;
 5/5=2,38=5/2;
 6/7=2,8=2,9=2,10=2,28=1/1;
 1/53=2,62=2,63=1/22;
 3/5=7,6=11,7=101,11=2,25=1,30=1,74=-5,82=7,124=31/1,2,3;
 4//1;
 5/5=2,38=5/2;
 6/7=2,8=2,9=2,10=2,28=1/1;
 1/53=2,62=2,63=1/22(-4);
 99/5=1,9=1/99;
 Leave Link    1 at Wed Sep 27 16:57:51 2023, MaxMem=  3221225472 cpu:               7.0 elap:               0.2
 (Enter /home/center/opt/aarch64/apps/gaussian16/c01/g16/l101.exe)
 ----------------------------
 pentacene_A1=0_A2=0_A3=45_t1
 ----------------------------
 Symbolic Z-matrix:
 Charge =  0 Multiplicity = 1 in supermolecule
 Charge =  0 Multiplicity = 1 in fragment      1.
 Charge =  0 Multiplicity = 1 in fragment      2.
 C(Fragment=1)        -0.50395   0.52395  -3.66128 
 C(Fragment=1)         0.52395  -0.50395  -3.66128 
 C(Fragment=1)        -0.98612   1.00612  -4.92359 
 C(Fragment=1)         1.00613  -0.98613  -4.92359 
 C(Fragment=1)        -0.49632   0.51632  -6.09636 
 C(Fragment=1)         0.51632  -0.49632  -6.09636 
 C(Fragment=1)        -0.98447   1.00447  -2.45332 
 C(Fragment=1)        -0.50449   0.52449  -1.21403 
 C(Fragment=1)         1.00447  -0.98447  -2.45332 
 C(Fragment=1)         0.52449  -0.50449  -1.21403 
 H(Fragment=1)        -1.75336   1.77336  -4.92326 
 H(Fragment=1)        -1.75219   1.77219  -2.45393 
 H(Fragment=1)         1.77219  -1.75219  -2.45393 
 H(Fragment=1)         1.77336  -1.75336  -4.92326 
 H(Fragment=1)         0.89056  -0.87056  -7.04253 
 H(Fragment=1)        -0.87056   0.89056  -7.04253 
 C(Fragment=1)        -0.98482   1.00482   0.01 
 C(Fragment=1)        -0.50449   0.52449   1.23403 
 C(Fragment=1)         1.00482  -0.98482   0.01 
 C(Fragment=1)         0.52449  -0.50449   1.23403 
 H(Fragment=1)        -1.75247   1.77247   0.01 
 H(Fragment=1)         1.77247  -1.75247   0.01 
 C(Fragment=1)        -0.98447   1.00447   2.47332 
 C(Fragment=1)        -0.50395   0.52395   3.68128 
 C(Fragment=1)         1.00447  -0.98447   2.47332 
 C(Fragment=1)         0.52395  -0.50395   3.68128 
 H(Fragment=1)        -1.75219   1.77219   2.47393 
 H(Fragment=1)         1.77219  -1.75219   2.47393 
 C(Fragment=1)        -0.98612   1.00612   4.94359 
 C(Fragment=1)        -0.49632   0.51632   6.11636 
 C(Fragment=1)         1.00612  -0.98612   4.94359 
 C(Fragment=1)         0.51632  -0.49632   6.11636 
 H(Fragment=1)        -1.75336   1.77336   4.94326 
 H(Fragment=1)        -0.87056   0.89056   7.06253 
 H(Fragment=1)         0.89056  -0.87056   7.06253 
 H(Fragment=1)         1.77336  -1.75336   4.94326 
 C(Fragment=2)         5.27395   3.27395  -3.66128 
 C(Fragment=2)         4.24605   2.24605  -3.66128 
 C(Fragment=2)         5.75612   3.75612  -4.92359 
 C(Fragment=2)         3.76387   1.76387  -4.92359 
 C(Fragment=2)         5.26632   3.26632  -6.09636 
 C(Fragment=2)         4.25368   2.25368  -6.09636 
 C(Fragment=2)         5.75447   3.75447  -2.45332 
 C(Fragment=2)         5.27449   3.27449  -1.21403 
 C(Fragment=2)         3.76553   1.76553  -2.45332 
 C(Fragment=2)         4.24551   2.24551  -1.21403 
 H(Fragment=2)         6.52336   4.52336  -4.92326 
 H(Fragment=2)         6.52219   4.52219  -2.45393 
 H(Fragment=2)         2.99781   0.99781  -2.45393 
 H(Fragment=2)         2.99664   0.99664  -4.92326 
 H(Fragment=2)         3.87944   1.87944  -7.04253 
 H(Fragment=2)         5.64056   3.64056  -7.04253 
 C(Fragment=2)         5.75482   3.75482   0.01 
 C(Fragment=2)         5.27449   3.27449   1.23403 
 C(Fragment=2)         3.76518   1.76518   0.01 
 C(Fragment=2)         4.24551   2.24551   1.23403 
 H(Fragment=2)         6.52247   4.52247   0.01 
 H(Fragment=2)         2.99753   0.99753   0.01 
 C(Fragment=2)         5.75447   3.75447   2.47332 
 C(Fragment=2)         5.27395   3.27395   3.68128 
 C(Fragment=2)         3.76553   1.76553   2.47332 
 C(Fragment=2)         4.24605   2.24605   3.68128 
 H(Fragment=2)         6.52219   4.52219   2.47393 
 H(Fragment=2)         2.99781   0.99781   2.47393 
 C(Fragment=2)         5.75612   3.75612   4.94359 
 C(Fragment=2)         5.26632   3.26632   6.11636 
 C(Fragment=2)         3.76388   1.76388   4.94359 
 C(Fragment=2)         4.25368   2.25368   6.11636 
 H(Fragment=2)         6.52336   4.52336   4.94326 
 H(Fragment=2)         5.64056   3.64056   7.06253 
 H(Fragment=2)         3.87944   1.87944   7.06253 
 H(Fragment=2)         2.99664   0.99664   4.94326 
 
 ITRead=  0  0  0  0  0  0  0  0  0  0  0  0  0  0  0  0  0  0  0  0
 ITRead=  0  0  0  0  0  0  0  0  0  0  0  0  0  0  0  0  0  0  0  0
 ITRead=  0  0  0  0  0  0  0  0  0  0  0  0  0  0  0  0  0  0  0  0
 ITRead=  0  0  0  0  0  0  0  0  0  0  0  0
 MicOpt= -1 -1 -1 -1 -1 -1 -1 -1 -1 -1 -1 -1 -1 -1 -1 -1 -1 -1 -1 -1
 MicOpt= -1 -1 -1 -1 -1 -1 -1 -1 -1 -1 -1 -1 -1 -1 -1 -1 -1 -1 -1 -1
 MicOpt= -1 -1 -1 -1 -1 -1 -1 -1 -1 -1 -1 -1 -1 -1 -1 -1 -1 -1 -1 -1
 MicOpt= -1 -1 -1 -1 -1 -1 -1 -1 -1 -1 -1 -1
 NAtoms=     72 NQM=       72 NQMF=       0 NMMI=      0 NMMIF=      0
                NMic=       0 NMicF=      0.
                    Isotopes and Nuclear Properties:
 (Nuclear quadrupole moments (NQMom) in fm**2, nuclear magnetic moments (NMagM)
  in nuclear magnetons)

  Atom         1           2           3           4           5           6           7           8           9          10
 IAtWgt=          12          12          12          12          12          12          12          12          12          12
 AtmWgt=  12.0000000  12.0000000  12.0000000  12.0000000  12.0000000  12.0000000  12.0000000  12.0000000  12.0000000  12.0000000
 NucSpn=           0           0           0           0           0           0           0           0           0           0
 AtZEff=   0.0000000   0.0000000   0.0000000   0.0000000   0.0000000   0.0000000   0.0000000   0.0000000   0.0000000   0.0000000
 NQMom=    0.0000000   0.0000000   0.0000000   0.0000000   0.0000000   0.0000000   0.0000000   0.0000000   0.0000000   0.0000000
 NMagM=    0.0000000   0.0000000   0.0000000   0.0000000   0.0000000   0.0000000   0.0000000   0.0000000   0.0000000   0.0000000
 AtZNuc=   6.0000000   6.0000000   6.0000000   6.0000000   6.0000000   6.0000000   6.0000000   6.0000000   6.0000000   6.0000000

  Atom        11          12          13          14          15          16          17          18          19          20
 IAtWgt=           1           1           1           1           1           1          12          12          12          12
 AtmWgt=   1.0078250   1.0078250   1.0078250   1.0078250   1.0078250   1.0078250  12.0000000  12.0000000  12.0000000  12.0000000
 NucSpn=           1           1           1           1           1           1           0           0           0           0
 AtZEff=   0.0000000   0.0000000   0.0000000   0.0000000   0.0000000   0.0000000   0.0000000   0.0000000   0.0000000   0.0000000
 NQMom=    0.0000000   0.0000000   0.0000000   0.0000000   0.0000000   0.0000000   0.0000000   0.0000000   0.0000000   0.0000000
 NMagM=    2.7928460   2.7928460   2.7928460   2.7928460   2.7928460   2.7928460   0.0000000   0.0000000   0.0000000   0.0000000
 AtZNuc=   1.0000000   1.0000000   1.0000000   1.0000000   1.0000000   1.0000000   6.0000000   6.0000000   6.0000000   6.0000000

  Atom        21          22          23          24          25          26          27          28          29          30
 IAtWgt=           1           1          12          12          12          12           1           1          12          12
 AtmWgt=   1.0078250   1.0078250  12.0000000  12.0000000  12.0000000  12.0000000   1.0078250   1.0078250  12.0000000  12.0000000
 NucSpn=           1           1           0           0           0           0           1           1           0           0
 AtZEff=   0.0000000   0.0000000   0.0000000   0.0000000   0.0000000   0.0000000   0.0000000   0.0000000   0.0000000   0.0000000
 NQMom=    0.0000000   0.0000000   0.0000000   0.0000000   0.0000000   0.0000000   0.0000000   0.0000000   0.0000000   0.0000000
 NMagM=    2.7928460   2.7928460   0.0000000   0.0000000   0.0000000   0.0000000   2.7928460   2.7928460   0.0000000   0.0000000
 AtZNuc=   1.0000000   1.0000000   6.0000000   6.0000000   6.0000000   6.0000000   1.0000000   1.0000000   6.0000000   6.0000000

  Atom        31          32          33          34          35          36          37          38          39          40
 IAtWgt=          12          12           1           1           1           1          12          12          12          12
 AtmWgt=  12.0000000  12.0000000   1.0078250   1.0078250   1.0078250   1.0078250  12.0000000  12.0000000  12.0000000  12.0000000
 NucSpn=           0           0           1           1           1           1           0           0           0           0
 AtZEff=   0.0000000   0.0000000   0.0000000   0.0000000   0.0000000   0.0000000   0.0000000   0.0000000   0.0000000   0.0000000
 NQMom=    0.0000000   0.0000000   0.0000000   0.0000000   0.0000000   0.0000000   0.0000000   0.0000000   0.0000000   0.0000000
 NMagM=    0.0000000   0.0000000   2.7928460   2.7928460   2.7928460   2.7928460   0.0000000   0.0000000   0.0000000   0.0000000
 AtZNuc=   6.0000000   6.0000000   1.0000000   1.0000000   1.0000000   1.0000000   6.0000000   6.0000000   6.0000000   6.0000000

  Atom        41          42          43          44          45          46          47          48          49          50
 IAtWgt=          12          12          12          12          12          12           1           1           1           1
 AtmWgt=  12.0000000  12.0000000  12.0000000  12.0000000  12.0000000  12.0000000   1.0078250   1.0078250   1.0078250   1.0078250
 NucSpn=           0           0           0           0           0           0           1           1           1           1
 AtZEff=   0.0000000   0.0000000   0.0000000   0.0000000   0.0000000   0.0000000   0.0000000   0.0000000   0.0000000   0.0000000
 NQMom=    0.0000000   0.0000000   0.0000000   0.0000000   0.0000000   0.0000000   0.0000000   0.0000000   0.0000000   0.0000000
 NMagM=    0.0000000   0.0000000   0.0000000   0.0000000   0.0000000   0.0000000   2.7928460   2.7928460   2.7928460   2.7928460
 AtZNuc=   6.0000000   6.0000000   6.0000000   6.0000000   6.0000000   6.0000000   1.0000000   1.0000000   1.0000000   1.0000000

  Atom        51          52          53          54          55          56          57          58          59          60
 IAtWgt=           1           1          12          12          12          12           1           1          12          12
 AtmWgt=   1.0078250   1.0078250  12.0000000  12.0000000  12.0000000  12.0000000   1.0078250   1.0078250  12.0000000  12.0000000
 NucSpn=           1           1           0           0           0           0           1           1           0           0
 AtZEff=   0.0000000   0.0000000   0.0000000   0.0000000   0.0000000   0.0000000   0.0000000   0.0000000   0.0000000   0.0000000
 NQMom=    0.0000000   0.0000000   0.0000000   0.0000000   0.0000000   0.0000000   0.0000000   0.0000000   0.0000000   0.0000000
 NMagM=    2.7928460   2.7928460   0.0000000   0.0000000   0.0000000   0.0000000   2.7928460   2.7928460   0.0000000   0.0000000
 AtZNuc=   1.0000000   1.0000000   6.0000000   6.0000000   6.0000000   6.0000000   1.0000000   1.0000000   6.0000000   6.0000000

  Atom        61          62          63          64          65          66          67          68          69          70
 IAtWgt=          12          12           1           1          12          12          12          12           1           1
 AtmWgt=  12.0000000  12.0000000   1.0078250   1.0078250  12.0000000  12.0000000  12.0000000  12.0000000   1.0078250   1.0078250
 NucSpn=           0           0           1           1           0           0           0           0           1           1
 AtZEff=   0.0000000   0.0000000   0.0000000   0.0000000   0.0000000   0.0000000   0.0000000   0.0000000   0.0000000   0.0000000
 NQMom=    0.0000000   0.0000000   0.0000000   0.0000000   0.0000000   0.0000000   0.0000000   0.0000000   0.0000000   0.0000000
 NMagM=    0.0000000   0.0000000   2.7928460   2.7928460   0.0000000   0.0000000   0.0000000   0.0000000   2.7928460   2.7928460
 AtZNuc=   6.0000000   6.0000000   1.0000000   1.0000000   6.0000000   6.0000000   6.0000000   6.0000000   1.0000000   1.0000000

  Atom        71          72
 IAtWgt=           1           1
 AtmWgt=   1.0078250   1.0078250
 NucSpn=           1           1
 AtZEff=   0.0000000   0.0000000
 NQMom=    0.0000000   0.0000000
 NMagM=    2.7928460   2.7928460
 AtZNuc=   1.0000000   1.0000000
 Leave Link  101 at Wed Sep 27 16:57:53 2023, MaxMem=  3221225472 cpu:               2.5 elap:               0.1
 (Enter /home/center/opt/aarch64/apps/gaussian16/c01/g16/l202.exe)
 Stoichiometry    C44H28
 Framework group  CS[SG(C4H4),X(C40H24)]
 Deg. of freedom   109
 Full point group                 CS      NOp   2
 Largest Abelian subgroup         CS      NOp   2
 Largest concise Abelian subgroup CS      NOp   2
                         Standard orientation:                         
 ---------------------------------------------------------------------
 Center     Atomic      Atomic             Coordinates (Angstroms)
 Number     Number       Type             X           Y           Z
 ---------------------------------------------------------------------
      1          6           0        1.433939   -2.651650    3.671276
      2          6           0       -0.019725   -2.651650    3.671276
      3          6           0        2.115840   -2.651650    4.933593
      4          6           0       -0.701627   -2.651650    4.933593
      5          6           0        1.423153   -2.651650    6.106357
      6          6           0       -0.008940   -2.651650    6.106357
      7          6           0        2.113498   -2.651650    2.463318
      8          6           0        1.434703   -2.651650    1.224029
      9          6           0       -0.699284   -2.651650    2.463317
     10          6           0       -0.020490   -2.651650    1.224029
     11          1           0        3.200869   -2.651650    4.933260
     12          1           0        3.199215   -2.651650    2.463929
     13          1           0       -1.785000   -2.651650    2.463929
     14          1           0       -1.786655   -2.651650    4.933260
     15          1           0       -0.538189   -2.651650    7.052528
     16          1           0        1.952402   -2.651650    7.052528
     17          6           0        2.113993   -2.651650    0.000000
     18          6           0        1.434703   -2.651650   -1.224029
     19          6           0       -0.699779   -2.651650    0.000000
     20          6           0       -0.020490   -2.651650   -1.224029
     21          1           0        3.199616   -2.651650    0.000000
     22          1           0       -1.785401   -2.651650    0.000000
     23          6           0        2.113498   -2.651650   -2.463318
     24          6           0        1.433939   -2.651650   -3.671276
     25          6           0       -0.699284   -2.651650   -2.463317
     26          6           0       -0.019725   -2.651650   -3.671276
     27          1           0        3.199215   -2.651650   -2.463929
     28          1           0       -1.785000   -2.651650   -2.463929
     29          6           0        2.115840   -2.651650   -4.933593
     30          6           0        1.423153   -2.651650   -6.106357
     31          6           0       -0.701627   -2.651650   -4.933593
     32          6           0       -0.008940   -2.651650   -6.106357
     33          1           0        3.200869   -2.651650   -4.933260
     34          1           0        1.952402   -2.651650   -7.052528
     35          1           0       -0.538189   -2.651650   -7.052528
     36          1           0       -1.786655   -2.651650   -4.933260
     37          6           0       -0.707107    3.378482    3.671276
     38          6           0       -0.707107    1.924818    3.671276
     39          6           0       -0.707107    4.060384    4.933593
     40          6           0       -0.707107    1.242917    4.933593
     41          6           0       -0.707107    3.367697    6.106357
     42          6           0       -0.707107    1.935603    6.106357
     43          6           0       -0.707107    4.058041    2.463318
     44          6           0       -0.707107    3.379247    1.224029
     45          6           0       -0.707107    1.245260    2.463317
     46          6           0       -0.707107    1.924054    1.224029
     47          1           0       -0.707107    5.145412    4.933260
     48          1           0       -0.707107    5.143759    2.463929
     49          1           0       -0.707107    0.159543    2.463929
     50          1           0       -0.707107    0.157889    4.933260
     51          1           0       -0.707107    1.406355    7.052528
     52          1           0       -0.707107    3.896945    7.052528
     53          6           0       -0.707107    4.058536    0.000000
     54          6           0       -0.707107    3.379247   -1.224029
     55          6           0       -0.707107    1.244765    0.000000
     56          6           0       -0.707107    1.924054   -1.224029
     57          1           0       -0.707107    5.144159    0.000000
     58          1           0       -0.707107    0.159143    0.000000
     59          6           0       -0.707107    4.058041   -2.463318
     60          6           0       -0.707107    3.378482   -3.671276
     61          6           0       -0.707107    1.245260   -2.463317
     62          6           0       -0.707107    1.924818   -3.671276
     63          1           0       -0.707107    5.143759   -2.463929
     64          1           0       -0.707107    0.159543   -2.463929
     65          6           0       -0.707107    4.060384   -4.933593
     66          6           0       -0.707107    3.367697   -6.106357
     67          6           0       -0.707107    1.242917   -4.933593
     68          6           0       -0.707107    1.935603   -6.106357
     69          1           0       -0.707107    5.145412   -4.933260
     70          1           0       -0.707107    3.896945   -7.052528
     71          1           0       -0.707107    1.406355   -7.052528
     72          1           0       -0.707107    0.157889   -4.933260
 ---------------------------------------------------------------------
 Rotational constants (GHZ):           0.1020360           0.0563744           0.0384210
 Leave Link  202 at Wed Sep 27 16:57:56 2023, MaxMem=  3221225472 cpu:               0.6 elap:               0.0
 (Enter /home/center/opt/aarch64/apps/gaussian16/c01/g16/l122.exe)
 Counterpoise: doing full-system calculation.
 Leave Link  122 at Wed Sep 27 16:57:58 2023, MaxMem=  3221225472 cpu:               0.2 elap:               0.0
 (Enter /home/center/opt/aarch64/apps/gaussian16/c01/g16/l301.exe)
 Standard basis: 6-311G(d,p) (5D, 7F)
 Ernie: Thresh=  0.10000D-02 Tol=  0.10000D-05 Strict=F.
 There are   528 symmetry adapted cartesian basis functions of A'  symmetry.
 There are   476 symmetry adapted cartesian basis functions of A"  symmetry.
 There are   504 symmetry adapted basis functions of A'  symmetry.
 There are   456 symmetry adapted basis functions of A"  symmetry.
   960 basis functions,  1632 primitive gaussians,  1004 cartesian basis functions
   146 alpha electrons      146 beta electrons
       nuclear repulsion energy      4592.3546673713 Hartrees.
 IExCor=  402 DFT=T Ex+Corr=B3LYP ExCW=0 ScaHFX=  0.200000
 ScaDFX=  0.800000  0.720000  1.000000  0.810000 ScalE2=  1.000000  1.000000
 IRadAn=      5 IRanWt=     -1 IRanGd=            0 ICorTp=0 IEmpDi=131
 NAtoms=   72 NActive=   72 NUniq=   40 SFac= 3.24D+00 NAtFMM=   60 NAOKFM=T Big=F
 Integral buffers will be    131072 words long.
 Raffenetti 2 integral format.
 Two-electron integral symmetry is turned on.
 R6Disp:  Grimme-D3 Dispersion energy=       -0.0782729705 Hartrees.
 Nuclear repulsion after empirical dispersion term =     4592.2763944008 Hartrees.
 Leave Link  301 at Wed Sep 27 16:58:00 2023, MaxMem=  3221225472 cpu:               1.0 elap:               0.1
 (Enter /home/center/opt/aarch64/apps/gaussian16/c01/g16/l302.exe)
 NPDir=0 NMtPBC=     1 NCelOv=     1 NCel=       1 NClECP=     1 NCelD=      1
         NCelK=      1 NCelE2=     1 NClLst=     1 CellRange=     0.0.
 One-electron integrals computed using PRISM.
 One-electron integral symmetry used in STVInt
 NBasis=   960 RedAO= T EigKep=  3.76D-05  NBF=   504   456
 NBsUse=   960 1.00D-06 EigRej= -1.00D+00 NBFU=   504   456
 Precomputing XC quadrature grid using
 IXCGrd= 4 IRadAn=           5 IRanWt=          -1 IRanGd=           0 AccXCQ= 0.00D+00.
 Generated NRdTot=       0 NPtTot=           0 NUsed=           0 NTot=          32
 NSgBfM=   989   989   989   989   989 MxSgAt=    72 MxSgA2=    72.
 Leave Link  302 at Wed Sep 27 16:58:05 2023, MaxMem=  3221225472 cpu:              65.2 elap:               2.2
 (Enter /home/center/opt/aarch64/apps/gaussian16/c01/g16/l303.exe)
 DipDrv:  MaxL=1.
 Leave Link  303 at Wed Sep 27 16:58:08 2023, MaxMem=  3221225472 cpu:              13.8 elap:               0.4
 (Enter /home/center/opt/aarch64/apps/gaussian16/c01/g16/l401.exe)
 ExpMin= 1.03D-01 ExpMax= 4.56D+03 ExpMxC= 6.82D+02 IAcc=3 IRadAn=         5 AccDes= 0.00D+00
 Harris functional with IExCor=  402 and IRadAn=       5 diagonalized for initial guess.
 HarFok:  IExCor=  402 AccDes= 0.00D+00 IRadAn=         5 IDoV= 1 UseB2=F ITyADJ=14
 ICtDFT=  3500011 ScaDFX=  1.000000  1.000000  1.000000  1.000000
 FoFCou: FMM=F IPFlag=           0 FMFlag=      100000 FMFlg1=        2000
         NFxFlg=           0 DoJE=T BraDBF=F KetDBF=T FulRan=T
         wScrn=  0.000000 ICntrl=       500 IOpCl=  0 I1Cent=   200000004 NGrid=           0
         NMat0=    1 NMatS0=      1 NMatT0=    0 NMatD0=    1 NMtDS0=    0 NMtDT0=    0
 Petite list used in FoFCou.
 Harris En= -1694.13844671347    
 JPrj=0 DoOrth=F DoCkMO=F.
 Initial guess orbital symmetries:
       Occupied  (A") (A') (A") (A') (A') (A") (A') (A") (A") (A')
                 (A") (A') (A") (A') (A") (A') (A") (A') (A') (A")
                 (A") (A') (A") (A') (A') (A') (A') (A') (A") (A')
                 (A") (A') (A") (A') (A") (A') (A") (A') (A") (A')
                 (A') (A") (A') (A") (A') (A') (A") (A") (A') (A')
                 (A") (A") (A') (A') (A') (A') (A") (A") (A') (A')
                 (A") (A") (A") (A") (A') (A') (A') (A') (A") (A")
                 (A") (A") (A') (A') (A") (A") (A') (A') (A') (A')
                 (A') (A') (A") (A") (A") (A") (A") (A') (A") (A')
                 (A') (A') (A") (A") (A') (A') (A') (A') (A") (A")
                 (A') (A') (A") (A") (A") (A") (A') (A') (A') (A')
                 (A") (A") (A') (A') (A") (A") (A') (A') (A") (A")
                 (A") (A") (A') (A') (A') (A') (A") (A") (A') (A')
                 (A") (A") (A') (A') (A") (A") (A') (A') (A') (A')
                 (A") (A") (A") (A") (A') (A')
       Virtual   (A') (A') (A") (A") (A") (A") (A') (A') (A') (A')
                 (A") (A") (A') (A') (A") (A") (A') (A") (A') (A')
                 (A') (A') (A") (A') (A') (A") (A") (A") (A') (A')
                 (A") (A") (A') (A") (A') (A") (A') (A") (A') (A")
                 (A') (A') (A") (A") (A') (A') (A") (A') (A') (A')
                 (A') (A") (A') (A") (A') (A') (A") (A") (A') (A')
                 (A") (A") (A") (A") (A') (A') (A") (A") (A") (A')
                 (A') (A") (A') (A') (A") (A') (A") (A") (A') (A")
                 (A') (A') (A') (A") (A') (A') (A") (A') (A") (A')
                 (A") (A') (A") (A") (A') (A") (A') (A') (A") (A")
                 (A') (A') (A") (A") (A") (A') (A') (A') (A") (A')
                 (A') (A') (A") (A') (A') (A") (A') (A") (A') (A")
                 (A") (A") (A') (A') (A") (A') (A") (A") (A') (A")
                 (A') (A") (A') (A") (A") (A') (A") (A') (A') (A")
                 (A') (A") (A') (A') (A') (A") (A') (A') (A') (A")
                 (A') (A") (A") (A') (A") (A') (A') (A") (A') (A")
                 (A") (A') (A") (A') (A") (A') (A") (A') (A') (A")
                 (A") (A') (A") (A') (A') (A") (A') (A") (A') (A")
                 (A') (A") (A') (A") (A') (A") (A') (A') (A') (A")
                 (A') (A") (A') (A") (A") (A') (A') (A') (A") (A")
                 (A") (A') (A') (A') (A") (A') (A") (A') (A") (A')
                 (A") (A') (A") (A') (A') (A") (A") (A") (A") (A')
                 (A") (A') (A") (A') (A") (A') (A') (A") (A') (A")
                 (A') (A') (A') (A") (A') (A") (A') (A") (A") (A')
                 (A') (A") (A") (A') (A') (A") (A') (A") (A") (A')
                 (A") (A") (A') (A") (A') (A') (A') (A") (A') (A")
                 (A') (A') (A") (A") (A') (A") (A") (A') (A") (A')
                 (A") (A") (A") (A') (A') (A') (A") (A') (A") (A")
                 (A') (A') (A') (A') (A") (A") (A') (A") (A') (A")
                 (A') (A') (A') (A") (A") (A") (A") (A") (A") (A')
                 (A") (A') (A') (A') (A') (A') (A") (A') (A') (A")
                 (A") (A") (A') (A") (A") (A") (A') (A') (A') (A')
                 (A") (A') (A") (A') (A') (A") (A') (A") (A") (A')
                 (A") (A") (A') (A") (A') (A") (A') (A') (A') (A")
                 (A") (A') (A') (A") (A") (A') (A") (A') (A') (A')
                 (A") (A') (A") (A") (A') (A') (A') (A") (A') (A")
                 (A') (A') (A') (A") (A") (A') (A") (A") (A") (A")
                 (A") (A') (A") (A') (A") (A') (A") (A') (A') (A')
                 (A") (A') (A') (A") (A') (A') (A") (A') (A') (A")
                 (A") (A') (A') (A') (A") (A") (A') (A") (A") (A')
                 (A") (A') (A") (A') (A") (A') (A') (A") (A") (A')
                 (A") (A') (A') (A') (A") (A') (A") (A') (A") (A')
                 (A') (A') (A') (A") (A") (A') (A') (A") (A') (A")
                 (A") (A") (A") (A') (A") (A") (A') (A") (A') (A")
                 (A') (A") (A') (A") (A') (A") (A') (A") (A') (A")
                 (A') (A') (A') (A") (A") (A') (A') (A") (A') (A")
                 (A') (A") (A") (A') (A') (A") (A") (A') (A") (A')
                 (A") (A') (A") (A') (A") (A') (A") (A") (A') (A')
                 (A") (A') (A') (A') (A") (A') (A") (A") (A") (A')
                 (A") (A') (A") (A") (A") (A") (A") (A') (A") (A')
                 (A') (A") (A') (A') (A") (A') (A') (A') (A") (A")
                 (A') (A') (A') (A') (A") (A") (A") (A") (A') (A')
                 (A") (A') (A") (A') (A") (A") (A') (A') (A") (A')
                 (A") (A') (A') (A') (A") (A") (A') (A") (A") (A')
                 (A") (A") (A') (A') (A') (A") (A") (A") (A') (A")
                 (A') (A") (A') (A") (A') (A") (A") (A') (A') (A')
                 (A") (A") (A') (A') (A') (A') (A") (A") (A') (A")
                 (A') (A") (A") (A') (A") (A') (A") (A') (A") (A')
                 (A') (A') (A') (A") (A') (A") (A") (A') (A') (A")
                 (A') (A") (A') (A') (A') (A") (A') (A') (A") (A")
                 (A') (A") (A") (A') (A') (A") (A") (A") (A') (A')
                 (A") (A') (A") (A') (A") (A') (A') (A") (A') (A")
                 (A') (A") (A") (A") (A') (A') (A") (A") (A') (A')
                 (A') (A') (A') (A') (A") (A") (A') (A") (A") (A')
                 (A") (A') (A") (A") (A") (A') (A') (A") (A") (A')
                 (A') (A') (A') (A') (A') (A") (A") (A') (A") (A')
                 (A') (A") (A") (A") (A') (A") (A') (A') (A') (A")
                 (A') (A") (A") (A') (A") (A') (A") (A") (A') (A')
                 (A") (A') (A') (A") (A') (A") (A') (A") (A") (A")
                 (A') (A') (A") (A') (A') (A") (A') (A") (A") (A')
                 (A") (A') (A') (A") (A") (A') (A') (A") (A') (A")
                 (A") (A') (A") (A") (A') (A') (A') (A') (A") (A")
                 (A') (A') (A") (A") (A') (A") (A') (A') (A') (A")
                 (A') (A") (A") (A') (A") (A') (A") (A') (A') (A")
                 (A') (A") (A') (A") (A') (A") (A') (A') (A') (A')
                 (A") (A') (A") (A') (A") (A") (A') (A') (A") (A")
                 (A") (A') (A") (A') (A") (A") (A') (A") (A') (A")
                 (A') (A') (A") (A") (A') (A') (A') (A') (A") (A")
                 (A") (A") (A') (A') (A") (A') (A") (A') (A') (A')
                 (A") (A") (A") (A") (A') (A') (A') (A') (A") (A")
                 (A') (A') (A") (A") (A') (A') (A") (A') (A") (A')
                 (A') (A") (A') (A")
 The electronic state of the initial guess is 1-A'.
 Leave Link  401 at Wed Sep 27 16:58:13 2023, MaxMem=  3221225472 cpu:             104.1 elap:               2.6
 (Enter /home/center/opt/aarch64/apps/gaussian16/c01/g16/l502.exe)
 Integral symmetry usage will be decided dynamically.
 Closed shell SCF:
 Using DIIS extrapolation, IDIIS=  1040.
 NGot=  3221225472 LenX=  3219153746 LenY=  3218144726
 Requested convergence on RMS density matrix=1.00D-08 within 128 cycles.
 Requested convergence on MAX density matrix=1.00D-06.
 Requested convergence on             energy=1.00D-06.
 No special actions if energy rises.
 Fock matrices will be formed incrementally for  20 cycles.
 Integral accuracy reduced to 1.0D-05 until final iterations.

 Cycle   1  Pass 0  IDiag  1:
 FoFJK:  IHMeth= 1 ICntrl=       0 DoSepK=F KAlg= 0 I1Cent=           0 FoldK=F
 IRaf= 550000000 NMat=       1 IRICut=       1 DoRegI=T DoRafI=F ISym2E= 1 IDoP0=0 IntGTp=1.
 FoFCou: FMM=F IPFlag=           0 FMFlag=      100000 FMFlg1=        2000
         NFxFlg=           0 DoJE=F BraDBF=F KetDBF=F FulRan=T
         wScrn=  0.000000 ICntrl=         0 IOpCl=  0 I1Cent=           0 NGrid=           0
         NMat0=    1 NMatS0=      1 NMatT0=    0 NMatD0=    1 NMtDS0=    0 NMtDT0=    0
 Petite list used in FoFCou.
 E= -1693.16855081508    
 DIIS: error= 4.60D-02 at cycle   1 NSaved=   1.
 NSaved= 1 IEnMin= 1 EnMin= -1693.16855081508     IErMin= 1 ErrMin= 4.60D-02
 ErrMax= 4.60D-02  0.00D+00 EMaxC= 1.00D-01 BMatC= 9.01D-01 BMatP= 9.01D-01
 IDIUse=3 WtCom= 5.40D-01 WtEn= 4.60D-01
 Coeff-Com:  0.100D+01
 Coeff-En:   0.100D+01
 Coeff:      0.100D+01
 Gap=     0.062 Goal=   None    Shift=    0.000
 GapD=    0.062 DampG=0.500 DampE=0.500 DampFc=0.2500 IDamp=-1.
 Damping current iteration by 2.50D-01
 RMSDP=1.72D-03 MaxDP=8.41D-02              OVMax= 1.57D-01

 Cycle   2  Pass 0  IDiag  1:
 RMSU=  4.16D-04    CP:  9.82D-01
 E= -1693.47853658750     Delta-E=       -0.309985772417 Rises=F Damp=T
 DIIS: error= 2.67D-02 at cycle   2 NSaved=   2.
 NSaved= 2 IEnMin= 2 EnMin= -1693.47853658750     IErMin= 2 ErrMin= 2.67D-02
 ErrMax= 2.67D-02  0.00D+00 EMaxC= 1.00D-01 BMatC= 2.99D-01 BMatP= 9.01D-01
 IDIUse=3 WtCom= 7.33D-01 WtEn= 2.67D-01
 Coeff-Com: -0.121D+01 0.221D+01
 Coeff-En:   0.000D+00 0.100D+01
 Coeff:     -0.885D+00 0.188D+01
 Gap=     0.064 Goal=   None    Shift=    0.000
 RMSDP=7.04D-04 MaxDP=3.34D-02 DE=-3.10D-01 OVMax= 8.46D-02

 Cycle   3  Pass 0  IDiag  1:
 RMSU=  4.45D-04    CP:  9.57D-01  2.26D+00
 E= -1694.04537995221     Delta-E=       -0.566843364712 Rises=F Damp=F
 DIIS: error= 4.92D-03 at cycle   3 NSaved=   3.
 NSaved= 3 IEnMin= 3 EnMin= -1694.04537995221     IErMin= 3 ErrMin= 4.92D-03
 ErrMax= 4.92D-03  0.00D+00 EMaxC= 1.00D-01 BMatC= 1.18D-02 BMatP= 2.99D-01
 IDIUse=3 WtCom= 9.51D-01 WtEn= 4.92D-02
 Coeff-Com: -0.244D+00 0.509D+00 0.736D+00
 Coeff-En:   0.000D+00 0.000D+00 0.100D+01
 Coeff:     -0.232D+00 0.484D+00 0.749D+00
 Gap=     0.069 Goal=   None    Shift=    0.000
 RMSDP=2.40D-04 MaxDP=1.25D-02 DE=-5.67D-01 OVMax= 8.65D-02

 Cycle   4  Pass 0  IDiag  1:
 RMSU=  2.04D-04    CP:  9.59D-01  2.16D+00  7.35D-01
 E= -1694.04106349258     Delta-E=        0.004316459630 Rises=F Damp=F
 DIIS: error= 7.14D-03 at cycle   4 NSaved=   4.
 NSaved= 4 IEnMin= 3 EnMin= -1694.04537995221     IErMin= 3 ErrMin= 4.92D-03
 ErrMax= 7.14D-03  0.00D+00 EMaxC= 1.00D-01 BMatC= 1.39D-02 BMatP= 1.18D-02
 IDIUse=3 WtCom= 1.06D-01 WtEn= 8.94D-01
 Coeff-Com: -0.352D-01 0.104D+00 0.526D+00 0.405D+00
 Coeff-En:   0.000D+00 0.000D+00 0.562D+00 0.438D+00
 Coeff:     -0.372D-02 0.110D-01 0.558D+00 0.434D+00
 Gap=     0.066 Goal=   None    Shift=    0.000
 RMSDP=1.47D-04 MaxDP=8.38D-03 DE= 4.32D-03 OVMax= 6.96D-02

 Cycle   5  Pass 0  IDiag  1:
 RMSU=  7.96D-05    CP:  9.59D-01  2.14D+00  8.06D-01  4.14D-01
 E= -1694.05654389028     Delta-E=       -0.015480397698 Rises=F Damp=F
 DIIS: error= 2.19D-03 at cycle   5 NSaved=   5.
 NSaved= 5 IEnMin= 5 EnMin= -1694.05654389028     IErMin= 5 ErrMin= 2.19D-03
 ErrMax= 2.19D-03  0.00D+00 EMaxC= 1.00D-01 BMatC= 1.08D-03 BMatP= 1.18D-02
 IDIUse=3 WtCom= 9.78D-01 WtEn= 2.19D-02
 Coeff-Com: -0.165D-01 0.350D-01 0.243D+00 0.246D+00 0.493D+00
 Coeff-En:   0.000D+00 0.000D+00 0.000D+00 0.354D-01 0.965D+00
 Coeff:     -0.162D-01 0.343D-01 0.238D+00 0.241D+00 0.503D+00
 Gap=     0.066 Goal=   None    Shift=    0.000
 RMSDP=4.79D-05 MaxDP=2.86D-03 DE=-1.55D-02 OVMax= 2.46D-02

 Cycle   6  Pass 0  IDiag  1:
 RMSU=  2.38D-05    CP:  9.58D-01  2.17D+00  8.16D-01  5.13D-01  5.68D-01
 E= -1694.05755038364     Delta-E=       -0.001006493357 Rises=F Damp=F
 DIIS: error= 1.17D-03 at cycle   6 NSaved=   6.
 NSaved= 6 IEnMin= 6 EnMin= -1694.05755038364     IErMin= 6 ErrMin= 1.17D-03
 ErrMax= 1.17D-03  0.00D+00 EMaxC= 1.00D-01 BMatC= 2.28D-04 BMatP= 1.08D-03
 IDIUse=3 WtCom= 9.88D-01 WtEn= 1.17D-02
 Coeff-Com: -0.605D-02 0.892D-02 0.981D-01 0.116D+00 0.358D+00 0.425D+00
 Coeff-En:   0.000D+00 0.000D+00 0.000D+00 0.000D+00 0.178D+00 0.822D+00
 Coeff:     -0.598D-02 0.882D-02 0.970D-01 0.114D+00 0.356D+00 0.430D+00
 Gap=     0.066 Goal=   None    Shift=    0.000
 RMSDP=1.88D-05 MaxDP=1.34D-03 DE=-1.01D-03 OVMax= 1.10D-02

 Cycle   7  Pass 0  IDiag  1:
 RMSU=  9.21D-06    CP:  9.58D-01  2.17D+00  8.20D-01  4.95D-01  6.42D-01
                    CP:  3.83D-01
 E= -1694.05780190930     Delta-E=       -0.000251525660 Rises=F Damp=F
 DIIS: error= 2.78D-04 at cycle   7 NSaved=   7.
 NSaved= 7 IEnMin= 7 EnMin= -1694.05780190930     IErMin= 7 ErrMin= 2.78D-04
 ErrMax= 2.78D-04  0.00D+00 EMaxC= 1.00D-01 BMatC= 1.82D-05 BMatP= 2.28D-04
 IDIUse=3 WtCom= 9.97D-01 WtEn= 2.78D-03
 Coeff-Com: -0.238D-02 0.286D-02 0.524D-01 0.629D-01 0.211D+00 0.294D+00
 Coeff-Com:  0.380D+00
 Coeff-En:   0.000D+00 0.000D+00 0.000D+00 0.000D+00 0.000D+00 0.270D-01
 Coeff-En:   0.973D+00
 Coeff:     -0.238D-02 0.285D-02 0.522D-01 0.628D-01 0.210D+00 0.293D+00
 Coeff:      0.382D+00
 Gap=     0.066 Goal=   None    Shift=    0.000
 RMSDP=5.40D-06 MaxDP=2.84D-04 DE=-2.52D-04 OVMax= 2.36D-03

 Initial convergence to 1.0D-05 achieved.  Increase integral accuracy.
 Cycle   8  Pass 1  IDiag  1:
 E= -1694.05746968008     Delta-E=        0.000332229216 Rises=F Damp=F
 DIIS: error= 9.05D-04 at cycle   1 NSaved=   1.
 NSaved= 1 IEnMin= 1 EnMin= -1694.05746968008     IErMin= 1 ErrMin= 9.05D-04
 ErrMax= 9.05D-04  0.00D+00 EMaxC= 1.00D-01 BMatC= 4.91D-05 BMatP= 4.91D-05
 IDIUse=3 WtCom= 9.91D-01 WtEn= 9.05D-03
 Coeff-Com:  0.100D+01
 Coeff-En:   0.100D+01
 Coeff:      0.100D+01
 Gap=     0.066 Goal=   None    Shift=    0.000
 RMSDP=5.40D-06 MaxDP=2.84D-04 DE= 3.32D-04 OVMax= 1.86D-03

 Cycle   9  Pass 1  IDiag  1:
 RMSU=  3.44D-04    CP:  9.97D-01
 E= -1694.05751436334     Delta-E=       -0.000044683256 Rises=F Damp=F
 DIIS: error= 1.09D-04 at cycle   2 NSaved=   2.
 NSaved= 2 IEnMin= 2 EnMin= -1694.05751436334     IErMin= 2 ErrMin= 1.09D-04
 ErrMax= 1.09D-04  0.00D+00 EMaxC= 1.00D-01 BMatC= 2.50D-06 BMatP= 4.91D-05
 IDIUse=3 WtCom= 9.99D-01 WtEn= 1.09D-03
 Coeff-Com:  0.618D-01 0.938D+00
 Coeff-En:   0.000D+00 0.100D+01
 Coeff:      0.618D-01 0.938D+00
 Gap=     0.066 Goal=   None    Shift=    0.000
 RMSDP=6.19D-06 MaxDP=3.38D-04 DE=-4.47D-05 OVMax= 2.85D-03

 Cycle  10  Pass 1  IDiag  1:
 RMSU=  5.31D-06    CP:  9.97D-01  1.01D+00
 E= -1694.05750317443     Delta-E=        0.000011188905 Rises=F Damp=F
 DIIS: error= 2.81D-04 at cycle   3 NSaved=   3.
 NSaved= 3 IEnMin= 2 EnMin= -1694.05751436334     IErMin= 2 ErrMin= 1.09D-04
 ErrMax= 2.81D-04  0.00D+00 EMaxC= 1.00D-01 BMatC= 1.15D-05 BMatP= 2.50D-06
 IDIUse=3 WtCom= 3.74D-01 WtEn= 6.26D-01
 Coeff-Com: -0.286D-02 0.686D+00 0.317D+00
 Coeff-En:   0.000D+00 0.768D+00 0.232D+00
 Coeff:     -0.107D-02 0.737D+00 0.264D+00
 Gap=     0.066 Goal=   None    Shift=    0.000
 RMSDP=3.21D-06 MaxDP=2.10D-04 DE= 1.12D-05 OVMax= 1.94D-03

 Cycle  11  Pass 1  IDiag  1:
 RMSU=  8.63D-07    CP:  9.97D-01  1.01D+00  4.18D-01
 E= -1694.05751685055     Delta-E=       -0.000013676121 Rises=F Damp=F
 DIIS: error= 3.60D-05 at cycle   4 NSaved=   4.
 NSaved= 4 IEnMin= 4 EnMin= -1694.05751685055     IErMin= 4 ErrMin= 3.60D-05
 ErrMax= 3.60D-05  0.00D+00 EMaxC= 1.00D-01 BMatC= 3.88D-07 BMatP= 2.50D-06
 IDIUse=1 WtCom= 1.00D+00 WtEn= 0.00D+00
 Coeff-Com: -0.360D-02 0.445D+00 0.144D+00 0.414D+00
 Coeff:     -0.360D-02 0.445D+00 0.144D+00 0.414D+00
 Gap=     0.066 Goal=   None    Shift=    0.000
 RMSDP=6.23D-07 MaxDP=3.12D-05 DE=-1.37D-05 OVMax= 1.47D-04

 Cycle  12  Pass 1  IDiag  1:
 RMSU=  3.49D-07    CP:  9.97D-01  1.01D+00  3.28D-01  7.83D-01
 E= -1694.05751725305     Delta-E=       -0.000000402497 Rises=F Damp=F
 DIIS: error= 5.11D-06 at cycle   5 NSaved=   5.
 NSaved= 5 IEnMin= 5 EnMin= -1694.05751725305     IErMin= 5 ErrMin= 5.11D-06
 ErrMax= 5.11D-06  0.00D+00 EMaxC= 1.00D-01 BMatC= 3.83D-09 BMatP= 3.88D-07
 IDIUse=1 WtCom= 1.00D+00 WtEn= 0.00D+00
 Coeff-Com: -0.213D-02 0.256D+00 0.810D-01 0.254D+00 0.411D+00
 Coeff:     -0.213D-02 0.256D+00 0.810D-01 0.254D+00 0.411D+00
 Gap=     0.066 Goal=   None    Shift=    0.000
 RMSDP=9.50D-08 MaxDP=5.25D-06 DE=-4.02D-07 OVMax= 3.83D-05

 Cycle  13  Pass 1  IDiag  1:
 RMSU=  8.69D-08    CP:  9.97D-01  1.01D+00  3.29D-01  7.95D-01  8.97D-01
 E= -1694.05751725751     Delta-E=       -0.000000004462 Rises=F Damp=F
 DIIS: error= 1.72D-06 at cycle   6 NSaved=   6.
 NSaved= 6 IEnMin= 6 EnMin= -1694.05751725751     IErMin= 6 ErrMin= 1.72D-06
 ErrMax= 1.72D-06  0.00D+00 EMaxC= 1.00D-01 BMatC= 5.65D-10 BMatP= 3.83D-09
 IDIUse=1 WtCom= 1.00D+00 WtEn= 0.00D+00
 Coeff-Com: -0.811D-03 0.946D-01 0.297D-01 0.979D-01 0.276D+00 0.503D+00
 Coeff:     -0.811D-03 0.946D-01 0.297D-01 0.979D-01 0.276D+00 0.503D+00
 Gap=     0.066 Goal=   None    Shift=    0.000
 RMSDP=2.67D-08 MaxDP=1.80D-06 DE=-4.46D-09 OVMax= 1.40D-05

 Cycle  14  Pass 1  IDiag  1:
 RMSU=  1.92D-08    CP:  9.97D-01  1.01D+00  3.30D-01  7.90D-01  9.23D-01
                    CP:  8.36D-01
 E= -1694.05751725811     Delta-E=       -0.000000000598 Rises=F Damp=F
 DIIS: error= 5.16D-07 at cycle   7 NSaved=   7.
 NSaved= 7 IEnMin= 7 EnMin= -1694.05751725811     IErMin= 7 ErrMin= 5.16D-07
 ErrMax= 5.16D-07  0.00D+00 EMaxC= 1.00D-01 BMatC= 3.33D-11 BMatP= 5.65D-10
 IDIUse=1 WtCom= 1.00D+00 WtEn= 0.00D+00
 Coeff-Com: -0.270D-03 0.309D-01 0.943D-02 0.337D-01 0.117D+00 0.267D+00
 Coeff-Com:  0.542D+00
 Coeff:     -0.270D-03 0.309D-01 0.943D-02 0.337D-01 0.117D+00 0.267D+00
 Coeff:      0.542D+00
 Gap=     0.066 Goal=   None    Shift=    0.000
 RMSDP=1.18D-08 MaxDP=7.90D-07 DE=-5.98D-10 OVMax= 7.92D-06

 Cycle  15  Pass 1  IDiag  1:
 RMSU=  9.43D-09    CP:  9.97D-01  1.01D+00  3.30D-01  7.92D-01  9.24D-01
                    CP:  8.54D-01  6.55D-01
 E= -1694.05751725813     Delta-E=       -0.000000000019 Rises=F Damp=F
 DIIS: error= 5.85D-07 at cycle   8 NSaved=   8.
 NSaved= 8 IEnMin= 8 EnMin= -1694.05751725813     IErMin= 7 ErrMin= 5.16D-07
 ErrMax= 5.85D-07  0.00D+00 EMaxC= 1.00D-01 BMatC= 2.67D-11 BMatP= 3.33D-11
 IDIUse=1 WtCom= 1.00D+00 WtEn= 0.00D+00
 Coeff-Com: -0.702D-05 0.298D-03-0.266D-03 0.217D-02 0.244D-01 0.888D-01
 Coeff-Com:  0.472D+00 0.413D+00
 Coeff:     -0.702D-05 0.298D-03-0.266D-03 0.217D-02 0.244D-01 0.888D-01
 Coeff:      0.472D+00 0.413D+00
 Gap=     0.066 Goal=   None    Shift=    0.000
 RMSDP=6.30D-09 MaxDP=4.53D-07 DE=-1.91D-11 OVMax= 4.14D-06

 SCF Done:  E(RB3LYP) =  -1694.05751726     A.U. after   15 cycles
            NFock= 15  Conv=0.63D-08     -V/T= 2.0044
 KE= 1.686693024508D+03 PE=-1.311503573125D+04 EE= 5.142008795084D+03
 Leave Link  502 at Wed Sep 27 16:59:58 2023, MaxMem=  3221225472 cpu:            3707.7 elap:             103.0
 (Enter /home/center/opt/aarch64/apps/gaussian16/c01/g16/l601.exe)
 Copying SCF densities to generalized density rwf, IOpCl= 0 IROHF=0.

 **********************************************************************

            Population analysis using the SCF Density.

 **********************************************************************

 Orbital symmetries:
       Occupied  (A") (A') (A') (A") (A") (A') (A") (A') (A') (A')
                 (A") (A') (A") (A') (A") (A') (A") (A') (A") (A')
                 (A") (A') (A") (A') (A") (A') (A') (A") (A') (A")
                 (A") (A') (A') (A") (A') (A") (A') (A") (A') (A')
                 (A") (A') (A") (A') (A') (A") (A') (A") (A') (A')
                 (A") (A") (A') (A') (A') (A") (A') (A") (A') (A')
                 (A") (A") (A") (A") (A') (A') (A') (A') (A") (A")
                 (A") (A') (A") (A") (A') (A') (A") (A') (A') (A')
                 (A') (A") (A") (A') (A") (A") (A') (A") (A') (A')
                 (A") (A') (A') (A") (A") (A') (A") (A") (A') (A')
                 (A") (A') (A') (A') (A') (A') (A") (A") (A") (A')
                 (A') (A') (A") (A") (A") (A") (A") (A") (A') (A')
                 (A') (A') (A') (A") (A') (A") (A') (A") (A") (A")
                 (A') (A") (A') (A') (A") (A') (A") (A') (A') (A')
                 (A") (A") (A") (A") (A') (A')
       Virtual   (A') (A') (A") (A") (A") (A") (A') (A') (A') (A")
                 (A') (A') (A") (A') (A") (A') (A') (A') (A") (A")
                 (A') (A') (A") (A") (A') (A") (A') (A") (A') (A")
                 (A") (A') (A") (A') (A') (A") (A") (A') (A") (A')
                 (A') (A') (A") (A') (A") (A') (A") (A') (A") (A")
                 (A') (A') (A') (A') (A') (A') (A') (A") (A") (A')
                 (A") (A") (A") (A") (A') (A') (A") (A") (A') (A")
                 (A') (A') (A") (A') (A") (A') (A") (A') (A") (A")
                 (A') (A') (A') (A') (A') (A") (A') (A") (A') (A")
                 (A") (A') (A') (A") (A') (A") (A") (A') (A") (A')
                 (A") (A") (A') (A') (A') (A") (A') (A") (A') (A")
                 (A") (A') (A") (A') (A') (A") (A") (A") (A') (A')
                 (A') (A") (A') (A') (A') (A') (A') (A") (A") (A')
                 (A") (A') (A") (A') (A") (A') (A') (A') (A") (A')
                 (A") (A') (A") (A') (A") (A') (A") (A") (A") (A')
                 (A") (A") (A') (A') (A") (A') (A") (A') (A') (A")
                 (A') (A') (A") (A") (A') (A') (A") (A') (A") (A")
                 (A") (A') (A") (A') (A') (A') (A') (A") (A") (A')
                 (A') (A") (A") (A') (A') (A") (A") (A') (A") (A')
                 (A") (A') (A") (A") (A') (A") (A') (A') (A") (A')
                 (A') (A") (A') (A") (A') (A") (A') (A') (A") (A')
                 (A') (A") (A") (A") (A') (A') (A") (A') (A") (A')
                 (A") (A") (A') (A") (A") (A') (A') (A') (A") (A')
                 (A') (A") (A") (A') (A') (A") (A") (A') (A') (A")
                 (A') (A") (A') (A") (A') (A") (A') (A") (A") (A')
                 (A") (A') (A") (A') (A") (A') (A") (A') (A") (A')
                 (A') (A") (A') (A") (A') (A") (A') (A') (A") (A")
                 (A') (A") (A") (A') (A") (A') (A") (A') (A') (A")
                 (A") (A') (A') (A') (A") (A") (A") (A') (A") (A')
                 (A") (A') (A') (A") (A") (A') (A') (A') (A") (A')
                 (A") (A") (A") (A") (A") (A') (A') (A') (A') (A')
                 (A") (A") (A') (A') (A") (A') (A") (A") (A') (A')
                 (A") (A') (A") (A') (A') (A") (A') (A") (A") (A")
                 (A') (A") (A') (A") (A') (A") (A') (A") (A') (A')
                 (A") (A') (A') (A') (A") (A") (A') (A') (A") (A")
                 (A') (A') (A") (A") (A') (A') (A') (A') (A') (A")
                 (A') (A") (A') (A") (A') (A") (A") (A") (A") (A")
                 (A') (A") (A') (A") (A') (A") (A') (A") (A') (A")
                 (A') (A') (A') (A") (A') (A") (A') (A") (A') (A')
                 (A') (A") (A') (A') (A") (A") (A') (A") (A') (A")
                 (A') (A") (A") (A') (A") (A') (A') (A') (A") (A")
                 (A') (A') (A") (A") (A') (A') (A") (A') (A') (A")
                 (A') (A') (A") (A') (A') (A") (A') (A") (A") (A')
                 (A") (A") (A") (A') (A") (A") (A') (A') (A') (A")
                 (A') (A") (A") (A') (A") (A") (A') (A") (A') (A")
                 (A') (A') (A") (A') (A") (A') (A") (A') (A") (A')
                 (A") (A') (A") (A') (A") (A") (A') (A') (A') (A')
                 (A") (A") (A') (A") (A") (A') (A") (A") (A') (A')
                 (A') (A") (A") (A') (A') (A') (A") (A') (A") (A")
                 (A") (A") (A") (A') (A") (A") (A") (A") (A') (A')
                 (A') (A") (A') (A') (A") (A') (A') (A') (A") (A")
                 (A') (A') (A') (A") (A') (A") (A') (A") (A') (A")
                 (A") (A") (A') (A") (A') (A') (A") (A') (A") (A")
                 (A') (A") (A') (A') (A") (A") (A") (A') (A') (A')
                 (A") (A") (A') (A') (A') (A") (A") (A") (A') (A")
                 (A') (A") (A") (A') (A') (A") (A') (A") (A') (A')
                 (A") (A') (A') (A") (A") (A') (A") (A') (A") (A')
                 (A") (A') (A') (A') (A") (A') (A') (A') (A") (A")
                 (A") (A") (A') (A') (A") (A') (A") (A') (A") (A')
                 (A") (A') (A") (A") (A') (A") (A') (A') (A') (A")
                 (A') (A') (A") (A") (A') (A") (A') (A") (A') (A")
                 (A') (A') (A') (A") (A') (A') (A') (A") (A') (A")
                 (A") (A") (A') (A') (A") (A") (A') (A") (A") (A")
                 (A') (A') (A') (A') (A') (A") (A') (A') (A") (A")
                 (A') (A") (A") (A") (A') (A") (A') (A") (A') (A')
                 (A') (A") (A') (A") (A') (A') (A") (A') (A") (A')
                 (A") (A") (A') (A') (A") (A") (A') (A') (A') (A")
                 (A') (A") (A") (A') (A") (A') (A") (A") (A') (A')
                 (A') (A') (A") (A") (A') (A") (A') (A") (A") (A")
                 (A') (A') (A") (A') (A') (A') (A") (A") (A") (A')
                 (A') (A') (A") (A") (A') (A") (A') (A") (A") (A')
                 (A") (A') (A") (A") (A') (A') (A') (A') (A") (A")
                 (A') (A') (A") (A') (A") (A') (A') (A") (A') (A")
                 (A") (A') (A') (A") (A") (A') (A') (A") (A') (A")
                 (A') (A") (A') (A") (A') (A') (A") (A') (A') (A")
                 (A') (A') (A") (A") (A') (A") (A') (A') (A") (A")
                 (A") (A') (A") (A") (A') (A') (A") (A") (A') (A")
                 (A') (A') (A") (A") (A') (A') (A') (A') (A") (A")
                 (A") (A") (A') (A') (A") (A') (A") (A') (A') (A')
                 (A") (A") (A") (A") (A') (A') (A') (A") (A') (A")
                 (A') (A") (A') (A') (A") (A") (A') (A') (A") (A')
                 (A') (A") (A') (A")
 The electronic state is 1-A'.
 Alpha  occ. eigenvalues --  -10.19605 -10.19605 -10.19531 -10.19530 -10.19515
 Alpha  occ. eigenvalues --  -10.19515 -10.19415 -10.19414 -10.18630 -10.18568
 Alpha  occ. eigenvalues --  -10.18564 -10.18564 -10.18535 -10.18535 -10.18503
 Alpha  occ. eigenvalues --  -10.18502 -10.18425 -10.18425 -10.18408 -10.18408
 Alpha  occ. eigenvalues --  -10.18313 -10.18313 -10.18091 -10.18091 -10.18044
 Alpha  occ. eigenvalues --  -10.18044 -10.18002 -10.18002 -10.17930 -10.17930
 Alpha  occ. eigenvalues --  -10.17168 -10.17167 -10.17101 -10.17096 -10.17096
 Alpha  occ. eigenvalues --  -10.17094 -10.17094 -10.17015 -10.17015 -10.16975
 Alpha  occ. eigenvalues --  -10.16941 -10.16941 -10.16878 -10.16878  -0.89996
 Alpha  occ. eigenvalues --   -0.88502  -0.88493  -0.87042  -0.86177  -0.84737
 Alpha  occ. eigenvalues --   -0.83038  -0.81609  -0.80462  -0.79140  -0.78952
 Alpha  occ. eigenvalues --   -0.78937  -0.77719  -0.77471  -0.76606  -0.75158
 Alpha  occ. eigenvalues --   -0.74875  -0.73513  -0.73447  -0.72074  -0.69814
 Alpha  occ. eigenvalues --   -0.68361  -0.67958  -0.66531  -0.63344  -0.62969
 Alpha  occ. eigenvalues --   -0.61906  -0.61716  -0.61569  -0.60559  -0.60226
 Alpha  occ. eigenvalues --   -0.59893  -0.59098  -0.58460  -0.58287  -0.56881
 Alpha  occ. eigenvalues --   -0.53308  -0.53161  -0.52883  -0.51902  -0.51734
 Alpha  occ. eigenvalues --   -0.51490  -0.50231  -0.49106  -0.48812  -0.47735
 Alpha  occ. eigenvalues --   -0.47731  -0.46690  -0.46353  -0.46151  -0.46082
 Alpha  occ. eigenvalues --   -0.45351  -0.44799  -0.44661  -0.44523  -0.43749
 Alpha  occ. eigenvalues --   -0.43139  -0.43139  -0.42402  -0.42394  -0.42155
 Alpha  occ. eigenvalues --   -0.41942  -0.41749  -0.41315  -0.40991  -0.40948
 Alpha  occ. eigenvalues --   -0.40724  -0.40562  -0.40209  -0.39851  -0.39602
 Alpha  occ. eigenvalues --   -0.38781  -0.38770  -0.37393  -0.37393  -0.36916
 Alpha  occ. eigenvalues --   -0.36123  -0.35946  -0.35574  -0.34704  -0.34638
 Alpha  occ. eigenvalues --   -0.34377  -0.33643  -0.33501  -0.33273  -0.33006
 Alpha  occ. eigenvalues --   -0.32816  -0.32153  -0.31531  -0.30774  -0.30170
 Alpha  occ. eigenvalues --   -0.29025  -0.28850  -0.27638  -0.27221  -0.25817
 Alpha  occ. eigenvalues --   -0.25022  -0.23580  -0.23213  -0.21776  -0.18518
 Alpha  occ. eigenvalues --   -0.17028
 Alpha virt. eigenvalues --   -0.10428  -0.08935  -0.05127  -0.03667  -0.03430
 Alpha virt. eigenvalues --   -0.01964  -0.00842   0.00652   0.01408   0.01562
 Alpha virt. eigenvalues --    0.02198   0.02838   0.03167   0.03776   0.03961
 Alpha virt. eigenvalues --    0.04016   0.04607   0.05425   0.05644   0.05946
 Alpha virt. eigenvalues --    0.06060   0.06600   0.07246   0.07628   0.07756
 Alpha virt. eigenvalues --    0.07997   0.08797   0.09074   0.09361   0.09519
 Alpha virt. eigenvalues --    0.10286   0.10571   0.10982   0.11013   0.11399
 Alpha virt. eigenvalues --    0.12186   0.12782   0.13096   0.13334   0.14015
 Alpha virt. eigenvalues --    0.14210   0.14936   0.15800   0.15874   0.17529
 Alpha virt. eigenvalues --    0.17771   0.18260   0.18691   0.18953   0.19648
 Alpha virt. eigenvalues --    0.19712   0.20412   0.22289   0.22442   0.23744
 Alpha virt. eigenvalues --    0.23849   0.24001   0.24111   0.25047   0.25298
 Alpha virt. eigenvalues --    0.25645   0.26241   0.26946   0.27080   0.27548
 Alpha virt. eigenvalues --    0.27675   0.28106   0.28336   0.28730   0.28817
 Alpha virt. eigenvalues --    0.28992   0.29289   0.29725   0.30101   0.30161
 Alpha virt. eigenvalues --    0.30300   0.30644   0.31319   0.31517   0.32080
 Alpha virt. eigenvalues --    0.32492   0.34165   0.34417   0.35010   0.35287
 Alpha virt. eigenvalues --    0.35547   0.35606   0.35947   0.36551   0.36713
 Alpha virt. eigenvalues --    0.36833   0.37467   0.37595   0.37801   0.37854
 Alpha virt. eigenvalues --    0.38265   0.38511   0.38582   0.38781   0.38859
 Alpha virt. eigenvalues --    0.39296   0.39549   0.39559   0.39856   0.40175
 Alpha virt. eigenvalues --    0.40407   0.40478   0.40788   0.41341   0.41375
 Alpha virt. eigenvalues --    0.41649   0.42145   0.42303   0.42306   0.42470
 Alpha virt. eigenvalues --    0.42622   0.42755   0.43052   0.43130   0.43335
 Alpha virt. eigenvalues --    0.43483   0.44113   0.44579   0.44716   0.45095
 Alpha virt. eigenvalues --    0.45199   0.45672   0.45712   0.45839   0.45869
 Alpha virt. eigenvalues --    0.46015   0.46194   0.46443   0.46487   0.46830
 Alpha virt. eigenvalues --    0.46850   0.47171   0.47224   0.47525   0.48052
 Alpha virt. eigenvalues --    0.48171   0.48657   0.48739   0.48975   0.49069
 Alpha virt. eigenvalues --    0.49322   0.49665   0.49943   0.50313   0.50442
 Alpha virt. eigenvalues --    0.50730   0.50775   0.51782   0.51900   0.52157
 Alpha virt. eigenvalues --    0.52409   0.52803   0.52910   0.53179   0.54488
 Alpha virt. eigenvalues --    0.54679   0.55294   0.55472   0.55819   0.56334
 Alpha virt. eigenvalues --    0.56918   0.57201   0.57296   0.57366   0.57863
 Alpha virt. eigenvalues --    0.58296   0.58721   0.59447   0.59586   0.59723
 Alpha virt. eigenvalues --    0.60287   0.60549   0.61327   0.61415   0.61564
 Alpha virt. eigenvalues --    0.61916   0.62062   0.62121   0.62449   0.62805
 Alpha virt. eigenvalues --    0.62805   0.63245   0.63424   0.63517   0.63832
 Alpha virt. eigenvalues --    0.63928   0.64092   0.64486   0.65267   0.65392
 Alpha virt. eigenvalues --    0.66051   0.66112   0.66358   0.66867   0.66909
 Alpha virt. eigenvalues --    0.67682   0.67947   0.69229   0.69548   0.70143
 Alpha virt. eigenvalues --    0.70778   0.70840   0.71797   0.71963   0.72294
 Alpha virt. eigenvalues --    0.72879   0.72933   0.73671   0.73935   0.74017
 Alpha virt. eigenvalues --    0.74621   0.75175   0.75303   0.75645   0.76292
 Alpha virt. eigenvalues --    0.76543   0.77139   0.77392   0.77462   0.78299
 Alpha virt. eigenvalues --    0.78967   0.79114   0.79423   0.79600   0.80304
 Alpha virt. eigenvalues --    0.80733   0.80776   0.81538   0.81608   0.82232
 Alpha virt. eigenvalues --    0.82481   0.83183   0.83265   0.83578   0.83585
 Alpha virt. eigenvalues --    0.84415   0.84722   0.85324   0.85868   0.86480
 Alpha virt. eigenvalues --    0.86881   0.87955   0.87996   0.89083   0.90060
 Alpha virt. eigenvalues --    0.90456   0.90525   0.91394   0.91703   0.91843
 Alpha virt. eigenvalues --    0.92389   0.92663   0.93198   0.93458   0.94574
 Alpha virt. eigenvalues --    0.95050   0.95105   0.95224   0.95627   0.96066
 Alpha virt. eigenvalues --    0.96271   0.96335   0.96661   0.97948   0.98034
 Alpha virt. eigenvalues --    0.98270   0.99368   0.99791   0.99792   1.00665
 Alpha virt. eigenvalues --    1.00766   1.01889   1.01976   1.02152   1.02440
 Alpha virt. eigenvalues --    1.02643   1.03481   1.03684   1.04670   1.04708
 Alpha virt. eigenvalues --    1.04928   1.05004   1.05397   1.05544   1.05593
 Alpha virt. eigenvalues --    1.06141   1.06207   1.06247   1.06374   1.06940
 Alpha virt. eigenvalues --    1.06944   1.07327   1.07545   1.08181   1.08434
 Alpha virt. eigenvalues --    1.09019   1.09302   1.09644   1.10766   1.10873
 Alpha virt. eigenvalues --    1.10934   1.11225   1.11524   1.12896   1.13050
 Alpha virt. eigenvalues --    1.13269   1.13932   1.13944   1.14028   1.14770
 Alpha virt. eigenvalues --    1.14790   1.15330   1.16207   1.16366   1.17088
 Alpha virt. eigenvalues --    1.17413   1.18325   1.18476   1.19284   1.20404
 Alpha virt. eigenvalues --    1.21002   1.22058   1.22913   1.23728   1.24520
 Alpha virt. eigenvalues --    1.25034   1.26172   1.27798   1.28167   1.30288
 Alpha virt. eigenvalues --    1.30755   1.30868   1.32556   1.32885   1.33014
 Alpha virt. eigenvalues --    1.34247   1.35179   1.35405   1.36723   1.37536
 Alpha virt. eigenvalues --    1.38668   1.39152   1.39717   1.40110   1.40480
 Alpha virt. eigenvalues --    1.40535   1.40935   1.41027   1.41680   1.42111
 Alpha virt. eigenvalues --    1.42681   1.43676   1.43898   1.44307   1.45166
 Alpha virt. eigenvalues --    1.45183   1.45878   1.46742   1.46934   1.47288
 Alpha virt. eigenvalues --    1.47317   1.47884   1.48376   1.48817   1.49423
 Alpha virt. eigenvalues --    1.49584   1.49876   1.50038   1.50150   1.50735
 Alpha virt. eigenvalues --    1.50819   1.51405   1.51635   1.52768   1.52792
 Alpha virt. eigenvalues --    1.53044   1.53727   1.54386   1.54446   1.54815
 Alpha virt. eigenvalues --    1.54859   1.55008   1.55122   1.55182   1.55744
 Alpha virt. eigenvalues --    1.56833   1.57612   1.57850   1.58002   1.58040
 Alpha virt. eigenvalues --    1.59385   1.59989   1.60155   1.60788   1.60852
 Alpha virt. eigenvalues --    1.61528   1.61718   1.62485   1.63025   1.64199
 Alpha virt. eigenvalues --    1.64903   1.65630   1.66114   1.66374   1.67635
 Alpha virt. eigenvalues --    1.69033   1.69306   1.69753   1.70437   1.70686
 Alpha virt. eigenvalues --    1.70698   1.70770   1.71924   1.71955   1.71967
 Alpha virt. eigenvalues --    1.73040   1.73362   1.73480   1.73667   1.73722
 Alpha virt. eigenvalues --    1.73894   1.74241   1.74709   1.74993   1.75994
 Alpha virt. eigenvalues --    1.76925   1.78329   1.78726   1.79293   1.79785
 Alpha virt. eigenvalues --    1.80061   1.80245   1.80416   1.81185   1.81253
 Alpha virt. eigenvalues --    1.81934   1.82029   1.82572   1.82691   1.82986
 Alpha virt. eigenvalues --    1.83236   1.84599   1.84846   1.84886   1.85278
 Alpha virt. eigenvalues --    1.85280   1.86543   1.87059   1.87368   1.87814
 Alpha virt. eigenvalues --    1.87923   1.88323   1.88373   1.88433   1.88639
 Alpha virt. eigenvalues --    1.88944   1.89136   1.89205   1.90559   1.91098
 Alpha virt. eigenvalues --    1.91217   1.91286   1.91602   1.92128   1.92396
 Alpha virt. eigenvalues --    1.92712   1.93134   1.93675   1.93727   1.93939
 Alpha virt. eigenvalues --    1.94202   1.94265   1.94673   1.95157   1.95264
 Alpha virt. eigenvalues --    1.95804   1.96217   1.96415   1.96706   1.97783
 Alpha virt. eigenvalues --    1.98562   1.99682   2.00664   2.00670   2.00814
 Alpha virt. eigenvalues --    2.01074   2.01129   2.02472   2.02617   2.04054
 Alpha virt. eigenvalues --    2.05616   2.06177   2.07769   2.07815   2.08837
 Alpha virt. eigenvalues --    2.09285   2.09291   2.10475   2.10841   2.11196
 Alpha virt. eigenvalues --    2.11568   2.11986   2.13069   2.13809   2.15116
 Alpha virt. eigenvalues --    2.15263   2.16159   2.16576   2.16638   2.17686
 Alpha virt. eigenvalues --    2.18011   2.19599   2.20388   2.21237   2.21402
 Alpha virt. eigenvalues --    2.22542   2.22682   2.22841   2.23148   2.23612
 Alpha virt. eigenvalues --    2.24153   2.25116   2.25373   2.26387   2.26701
 Alpha virt. eigenvalues --    2.26757   2.27646   2.27838   2.28062   2.28092
 Alpha virt. eigenvalues --    2.28276   2.29624   2.29682   2.30237   2.31997
 Alpha virt. eigenvalues --    2.33514   2.35168   2.35224   2.36578   2.38759
 Alpha virt. eigenvalues --    2.38792   2.40102   2.40224   2.40858   2.41407
 Alpha virt. eigenvalues --    2.42587   2.43096   2.45161   2.45258   2.45424
 Alpha virt. eigenvalues --    2.45712   2.45960   2.46631   2.46841   2.49633
 Alpha virt. eigenvalues --    2.49751   2.51769   2.52475   2.53578   2.53821
 Alpha virt. eigenvalues --    2.54689   2.54959   2.55301   2.56363   2.56678
 Alpha virt. eigenvalues --    2.57243   2.58152   2.58601   2.58732   2.59358
 Alpha virt. eigenvalues --    2.59513   2.60230   2.60672   2.60937   2.61232
 Alpha virt. eigenvalues --    2.61567   2.61712   2.62091   2.62206   2.62899
 Alpha virt. eigenvalues --    2.63144   2.63723   2.64264   2.64355   2.64608
 Alpha virt. eigenvalues --    2.64952   2.65531   2.65943   2.66251   2.66808
 Alpha virt. eigenvalues --    2.66975   2.67546   2.68027   2.68139   2.68258
 Alpha virt. eigenvalues --    2.68482   2.68934   2.69294   2.69654   2.69682
 Alpha virt. eigenvalues --    2.69890   2.70237   2.70285   2.70695   2.71153
 Alpha virt. eigenvalues --    2.71309   2.71563   2.71802   2.72585   2.73573
 Alpha virt. eigenvalues --    2.73728   2.74313   2.74711   2.75186   2.75737
 Alpha virt. eigenvalues --    2.75982   2.76904   2.76944   2.77892   2.78184
 Alpha virt. eigenvalues --    2.78830   2.78872   2.79392   2.79542   2.79915
 Alpha virt. eigenvalues --    2.81137   2.81282   2.81719   2.82333   2.83067
 Alpha virt. eigenvalues --    2.83314   2.83868   2.85041   2.85799   2.86081
 Alpha virt. eigenvalues --    2.86466   2.86761   2.87198   2.87988   2.88209
 Alpha virt. eigenvalues --    2.89691   2.90446   2.90489   2.91768   2.91904
 Alpha virt. eigenvalues --    2.92356   2.92369   2.93244   2.94148   2.94644
 Alpha virt. eigenvalues --    2.95113   2.95434   2.95994   2.98292   2.98295
 Alpha virt. eigenvalues --    2.98701   3.00380   3.00525   3.02892   3.03463
 Alpha virt. eigenvalues --    3.04753   3.05970   3.07044   3.07250   3.07517
 Alpha virt. eigenvalues --    3.08631   3.09179   3.15649   3.15913   3.16251
 Alpha virt. eigenvalues --    3.17110   3.17580   3.17911   3.19669   3.19984
 Alpha virt. eigenvalues --    3.20978   3.21486   3.23229   3.24913   3.29241
 Alpha virt. eigenvalues --    3.29733   3.30464   3.30873   3.31504   3.33017
 Alpha virt. eigenvalues --    3.35225   3.35634   3.36308   3.36551   3.37123
 Alpha virt. eigenvalues --    3.37259   3.37406   3.38089   3.39106   3.39397
 Alpha virt. eigenvalues --    3.40055   3.41075   3.41318   3.43408   3.45061
 Alpha virt. eigenvalues --    3.45177   3.46009   3.46745   3.48716   3.48858
 Alpha virt. eigenvalues --    3.50199   3.50288   3.51240   3.51456   3.53105
 Alpha virt. eigenvalues --    3.54853   3.57257   3.58523   3.58574   3.59930
 Alpha virt. eigenvalues --    3.61774   3.62646   3.62907   3.63666   3.63789
 Alpha virt. eigenvalues --    3.64812   3.65969   3.66395   3.66881   3.67720
 Alpha virt. eigenvalues --    3.68340   3.68474   3.69727   3.69785   4.00072
 Alpha virt. eigenvalues --    4.00128   4.01363   4.01608   4.02023   4.02043
 Alpha virt. eigenvalues --    4.02929   4.03247   4.15699   4.16213   4.17376
 Alpha virt. eigenvalues --    4.18194   4.18843   4.20150   4.21025   4.22055
 Alpha virt. eigenvalues --    4.22117   4.23138   4.23963   4.25546   4.26022
 Alpha virt. eigenvalues --    4.28546   4.38055   4.40480   4.61802   4.63989
 Alpha virt. eigenvalues --    4.78580   4.79180   4.79936   4.80515   4.80919
 Alpha virt. eigenvalues --    4.81971   4.82055   4.82414   4.84308   4.84677
 Alpha virt. eigenvalues --   23.39519  23.41837  23.54909  23.57350  23.69518
 Alpha virt. eigenvalues --   23.71626  23.77517  23.78685  23.80729  23.81444
 Alpha virt. eigenvalues --   23.82237  23.83207  23.86078  23.87301  23.88988
 Alpha virt. eigenvalues --   23.89460  23.90331  23.90462  23.92146  23.93761
 Alpha virt. eigenvalues --   23.96979  23.98055  23.98573  23.99337  24.08682
 Alpha virt. eigenvalues --   24.09377  24.10012  24.10034  24.10839  24.11443
 Alpha virt. eigenvalues --   24.11846  24.13261  24.13345  24.13806  24.14898
 Alpha virt. eigenvalues --   24.15220  24.15254  24.15611  24.16578  24.16612
 Alpha virt. eigenvalues --   24.19909  24.19955  24.21437  24.21490
          Condensed to atoms (all electrons):
 Mulliken charges:
               1
     1  C   -0.059513
     2  C   -0.033616
     3  C   -0.048153
     4  C   -0.094816
     5  C   -0.088042
     6  C   -0.085291
     7  C    0.001261
     8  C   -0.060213
     9  C   -0.073711
    10  C   -0.020472
    11  H    0.084960
    12  H    0.078027
    13  H    0.077012
    14  H    0.086122
    15  H    0.098339
    16  H    0.097307
    17  C   -0.003155
    18  C   -0.060213
    19  C   -0.077472
    20  C   -0.020472
    21  H    0.076704
    22  H    0.075782
    23  C    0.001261
    24  C   -0.059513
    25  C   -0.073711
    26  C   -0.033616
    27  H    0.078027
    28  H    0.077012
    29  C   -0.048153
    30  C   -0.088042
    31  C   -0.094816
    32  C   -0.085291
    33  H    0.084960
    34  H    0.097307
    35  H    0.098339
    36  H    0.086122
    37  C   -0.025761
    38  C   -0.115728
    39  C   -0.062804
    40  C   -0.052750
    41  C   -0.086628
    42  C   -0.118338
    43  C   -0.030292
    44  C   -0.013668
    45  C   -0.012770
    46  C   -0.121101
    47  H    0.078832
    48  H    0.070593
    49  H    0.123790
    50  H    0.123982
    51  H    0.086548
    52  H    0.091357
    53  C   -0.034396
    54  C   -0.013668
    55  C   -0.017507
    56  C   -0.121101
    57  H    0.069206
    58  H    0.121918
    59  C   -0.030292
    60  C   -0.025761
    61  C   -0.012770
    62  C   -0.115728
    63  H    0.070593
    64  H    0.123790
    65  C   -0.062804
    66  C   -0.086628
    67  C   -0.052750
    68  C   -0.118338
    69  H    0.078832
    70  H    0.091357
    71  H    0.086548
    72  H    0.123982
 Sum of Mulliken charges =   0.00000
 Mulliken charges with hydrogens summed into heavy atoms:
               1
     1  C   -0.059513
     2  C   -0.033616
     3  C    0.036806
     4  C   -0.008694
     5  C    0.009264
     6  C    0.013047
     7  C    0.079288
     8  C   -0.060213
     9  C    0.003300
    10  C   -0.020472
    17  C    0.073549
    18  C   -0.060213
    19  C   -0.001690
    20  C   -0.020472
    23  C    0.079288
    24  C   -0.059513
    25  C    0.003300
    26  C   -0.033616
    29  C    0.036806
    30  C    0.009264
    31  C   -0.008694
    32  C    0.013047
    37  C   -0.025761
    38  C   -0.115728
    39  C    0.016027
    40  C    0.071232
    41  C    0.004729
    42  C   -0.031790
    43  C    0.040301
    44  C   -0.013668
    45  C    0.111020
    46  C   -0.121101
    53  C    0.034810
    54  C   -0.013668
    55  C    0.104411
    56  C   -0.121101
    59  C    0.040301
    60  C   -0.025761
    61  C    0.111020
    62  C   -0.115728
    65  C    0.016027
    66  C    0.004729
    67  C    0.071232
    68  C   -0.031790
         Mulliken charges condensed to fragments:
      1     -0.009747
      2      0.009747
 Electronic spatial extent (au):  <R**2>=          26451.1347
 Charge=              0.0000 electrons
 Dipole moment (field-independent basis, Debye):
    X=              0.7422    Y=             -1.4007    Z=              0.0000  Tot=              1.5852
 Quadrupole moment (field-independent basis, Debye-Ang):
   XX=           -245.9103   YY=           -249.0844   ZZ=           -219.3885
   XY=             -0.3738   XZ=              0.0000   YZ=              0.0000
 Traceless Quadrupole moment (field-independent basis, Debye-Ang):
   XX=             -7.7826   YY=            -10.9567   ZZ=             18.7392
   XY=             -0.3738   XZ=              0.0000   YZ=              0.0000
 Octapole moment (field-independent basis, Debye-Ang**2):
  XXX=             59.2214  YYY=            179.6435  ZZZ=              0.0000  XYY=            -12.0436
  XXY=            -73.5094  XXZ=              0.0000  XZZ=             13.1000  YZZ=            -32.5595
  YYZ=              0.0000  XYZ=              0.0000
 Hexadecapole moment (field-independent basis, Debye-Ang**3):
 XXXX=          -1997.5852 YYYY=         -11755.1696 ZZZZ=         -21013.2605 XXXY=           1382.3822
 XXXZ=              0.0000 YYYX=           1394.3687 YYYZ=              0.0000 ZZZX=              0.0000
 ZZZY=              0.0000 XXYY=          -2367.7733 XXZZ=          -4271.2514 YYZZ=          -5741.0273
 XXYZ=              0.0000 YYXZ=              0.0000 ZZXY=            408.0961
 N-N= 4.592276394401D+03 E-N=-1.311503578828D+04  KE= 1.686693024508D+03
 Symmetry A'   KE= 9.134260829809D+02
 Symmetry A"   KE= 7.732669415274D+02
 No NMR shielding tensors so no spin-rotation constants.
 Leave Link  601 at Wed Sep 27 17:00:02 2023, MaxMem=  3221225472 cpu:              50.8 elap:               1.4
 (Enter /home/center/opt/aarch64/apps/gaussian16/c01/g16/l122.exe)
 CPIOFr:  IOpCl= 0 IRwI=-1 IRwCP=  731 ICalc= -1 LCPTot=     1419224 Len1MO=     3708034 IndFrg=     1419224
 CPIOFr:  IOpCl= 0 IRwI=-1 IRwCP=  731 ICalc=  0 LCPTot=     1419224 Len1MO=     3708034 IndFrg=     5127258
 Counterpoise: doing calculation for fragment   1 using the basis set of the full-system, NewBq=T
 Leave Link  122 at Wed Sep 27 17:00:05 2023, MaxMem=  3221225472 cpu:               8.8 elap:               0.6
 (Enter /home/center/opt/aarch64/apps/gaussian16/c01/g16/l301.exe)
 Basis read from rwf:  (5D, 7F)
 No pseudopotential information found on rwf file.
 There are   528 symmetry adapted cartesian basis functions of A'  symmetry.
 There are   476 symmetry adapted cartesian basis functions of A"  symmetry.
 There are   504 symmetry adapted basis functions of A'  symmetry.
 There are   456 symmetry adapted basis functions of A"  symmetry.
   960 basis functions,  1632 primitive gaussians,  1004 cartesian basis functions
    73 alpha electrons       73 beta electrons
       nuclear repulsion energy      1494.3575060237 Hartrees.
 IExCor=  402 DFT=T Ex+Corr=B3LYP ExCW=0 ScaHFX=  0.200000
 ScaDFX=  0.800000  0.720000  1.000000  0.810000 ScalE2=  1.000000  1.000000
 IRadAn=      5 IRanWt=     -1 IRanGd=            0 ICorTp=0 IEmpDi=131
 NAtoms=   72 NActive=   72 NUniq=   40 SFac= 3.24D+00 NAtFMM=   60 NAOKFM=T Big=F
 Integral buffers will be    131072 words long.
 Raffenetti 2 integral format.
 Two-electron integral symmetry is turned on.
 R6Disp:  Grimme-D3 Dispersion energy=       -0.0303938888 Hartrees.
 Nuclear repulsion after empirical dispersion term =     1494.3271121349 Hartrees.
 No density basis found on file    718.
 Leave Link  301 at Wed Sep 27 17:00:07 2023, MaxMem=  3221225472 cpu:               2.9 elap:               0.1
 (Enter /home/center/opt/aarch64/apps/gaussian16/c01/g16/l302.exe)
 NPDir=0 NMtPBC=     1 NCelOv=     1 NCel=       1 NClECP=     1 NCelD=      1
         NCelK=      1 NCelE2=     1 NClLst=     1 CellRange=     0.0.
 One-electron integrals computed using PRISM.
 One-electron integral symmetry used in STVInt
 NBasis=   960 RedAO= T EigKep=  3.76D-05  NBF=   504   456
 NBsUse=   960 1.00D-06 EigRej= -1.00D+00 NBFU=   504   456
 Precomputing XC quadrature grid using
 IXCGrd= 4 IRadAn=           5 IRanWt=          -1 IRanGd=           0 AccXCQ= 0.00D+00.
 Generated NRdTot=       0 NPtTot=           0 NUsed=           0 NTot=          32
 NSgBfM=   989   989   989   989   989 MxSgAt=    72 MxSgA2=    72.
 Leave Link  302 at Wed Sep 27 17:00:11 2023, MaxMem=  3221225472 cpu:              59.7 elap:               1.6
 (Enter /home/center/opt/aarch64/apps/gaussian16/c01/g16/l303.exe)
 DipDrv:  MaxL=1.
 Leave Link  303 at Wed Sep 27 17:00:14 2023, MaxMem=  3221225472 cpu:              16.7 elap:               0.5
 (Enter /home/center/opt/aarch64/apps/gaussian16/c01/g16/l401.exe)
 ExpMin= 1.03D-01 ExpMax= 4.56D+03 ExpMxC= 6.82D+02 IAcc=3 IRadAn=         5 AccDes= 0.00D+00
 Harris functional with IExCor=  402 and IRadAn=       5 diagonalized for initial guess.
 HarFok:  IExCor=  402 AccDes= 0.00D+00 IRadAn=         5 IDoV= 1 UseB2=F ITyADJ=14
 ICtDFT=  3500011 ScaDFX=  1.000000  1.000000  1.000000  1.000000
 FoFCou: FMM=F IPFlag=           0 FMFlag=      100000 FMFlg1=        2000
         NFxFlg=           0 DoJE=T BraDBF=F KetDBF=T FulRan=T
         wScrn=  0.000000 ICntrl=       500 IOpCl=  0 I1Cent=   200000004 NGrid=           0
         NMat0=    1 NMatS0=      1 NMatT0=    0 NMatD0=    1 NMtDS0=    0 NMtDT0=    0
 Petite list used in FoFCou.
 Harris En= -847.066087348032    
 JPrj=0 DoOrth=F DoCkMO=F.
 Initial guess orbital symmetries:
       Occupied  (A") (A') (A') (A") (A") (A') (A") (A') (A') (A")
                 (A") (A') (A') (A') (A") (A') (A") (A') (A") (A')
                 (A') (A") (A') (A") (A') (A") (A') (A') (A") (A')
                 (A") (A") (A') (A') (A") (A") (A') (A") (A') (A')
                 (A') (A") (A") (A") (A') (A') (A") (A') (A') (A")
                 (A') (A") (A") (A') (A') (A") (A') (A") (A') (A")
                 (A") (A') (A') (A") (A') (A") (A') (A") (A') (A')
                 (A") (A") (A')
       Virtual   (A') (A") (A") (A') (A') (A") (A') (A") (A') (A")
                 (A') (A') (A") (A') (A") (A') (A") (A') (A') (A")
                 (A") (A") (A') (A') (A") (A') (A') (A') (A') (A')
                 (A") (A") (A') (A") (A') (A") (A') (A") (A") (A')
                 (A') (A") (A") (A') (A") (A') (A") (A') (A") (A')
                 (A') (A") (A") (A') (A') (A') (A") (A') (A") (A")
                 (A') (A') (A') (A") (A") (A') (A") (A') (A") (A')
                 (A') (A") (A") (A') (A') (A") (A') (A') (A') (A")
                 (A') (A") (A') (A') (A") (A") (A') (A") (A') (A")
                 (A") (A") (A") (A') (A') (A") (A") (A') (A') (A')
                 (A') (A") (A') (A') (A") (A') (A") (A') (A') (A")
                 (A') (A") (A") (A') (A") (A') (A") (A") (A') (A")
                 (A') (A") (A') (A") (A') (A') (A') (A") (A') (A")
                 (A') (A") (A') (A') (A") (A") (A') (A') (A") (A')
                 (A') (A") (A') (A') (A") (A") (A') (A") (A") (A")
                 (A') (A') (A") (A") (A') (A") (A') (A') (A') (A")
                 (A') (A") (A') (A") (A') (A') (A") (A") (A') (A")
                 (A") (A') (A") (A') (A') (A') (A") (A") (A') (A")
                 (A') (A") (A') (A') (A") (A") (A') (A") (A') (A')
                 (A") (A') (A') (A") (A') (A') (A") (A") (A') (A")
                 (A') (A") (A") (A') (A") (A') (A") (A') (A") (A')
                 (A') (A') (A") (A") (A') (A") (A") (A') (A") (A")
                 (A') (A') (A') (A') (A") (A") (A') (A') (A") (A')
                 (A') (A") (A') (A") (A') (A") (A") (A") (A') (A")
                 (A") (A') (A') (A") (A') (A') (A') (A") (A") (A")
                 (A') (A") (A") (A') (A') (A') (A') (A') (A") (A")
                 (A") (A") (A') (A') (A') (A') (A") (A") (A') (A")
                 (A') (A') (A") (A") (A") (A') (A") (A') (A") (A')
                 (A') (A") (A") (A') (A') (A') (A") (A") (A') (A')
                 (A") (A') (A") (A') (A') (A') (A") (A') (A") (A")
                 (A') (A') (A") (A') (A") (A') (A") (A") (A") (A")
                 (A') (A") (A') (A') (A") (A') (A') (A') (A") (A")
                 (A') (A') (A") (A") (A') (A') (A") (A') (A") (A')
                 (A") (A') (A') (A') (A") (A') (A") (A') (A') (A")
                 (A") (A") (A') (A") (A') (A") (A") (A') (A') (A')
                 (A') (A") (A") (A') (A") (A') (A") (A') (A') (A')
                 (A") (A') (A") (A') (A") (A") (A") (A') (A') (A")
                 (A") (A') (A") (A') (A') (A") (A") (A') (A") (A')
                 (A") (A') (A") (A') (A") (A') (A') (A") (A') (A')
                 (A") (A") (A") (A') (A') (A") (A') (A") (A') (A")
                 (A') (A") (A') (A") (A") (A") (A') (A') (A') (A")
                 (A') (A") (A') (A') (A') (A") (A') (A") (A") (A')
                 (A") (A') (A") (A") (A') (A') (A") (A") (A') (A")
                 (A") (A') (A') (A') (A') (A') (A") (A") (A") (A')
                 (A") (A') (A') (A") (A') (A") (A') (A") (A") (A')
                 (A") (A') (A') (A') (A') (A") (A') (A") (A") (A")
                 (A") (A') (A') (A') (A") (A") (A") (A') (A') (A')
                 (A') (A") (A") (A") (A') (A") (A") (A') (A') (A")
                 (A') (A") (A") (A') (A") (A') (A') (A") (A") (A')
                 (A") (A') (A') (A') (A") (A") (A') (A") (A') (A")
                 (A') (A") (A') (A") (A') (A") (A') (A') (A") (A")
                 (A') (A') (A") (A") (A') (A") (A") (A') (A') (A')
                 (A') (A") (A") (A") (A') (A") (A') (A") (A') (A')
                 (A") (A') (A') (A") (A') (A") (A') (A') (A") (A')
                 (A") (A") (A') (A') (A") (A') (A') (A") (A") (A')
                 (A") (A') (A") (A') (A") (A') (A") (A') (A') (A")
                 (A') (A") (A') (A") (A") (A") (A') (A") (A') (A")
                 (A') (A') (A') (A') (A") (A') (A') (A") (A") (A')
                 (A") (A") (A") (A') (A') (A") (A') (A") (A") (A')
                 (A') (A") (A') (A') (A') (A") (A') (A") (A') (A")
                 (A") (A') (A") (A") (A') (A') (A") (A') (A') (A")
                 (A") (A') (A') (A") (A') (A") (A') (A") (A') (A')
                 (A") (A') (A") (A") (A') (A") (A") (A') (A') (A")
                 (A") (A') (A") (A") (A") (A') (A') (A') (A') (A')
                 (A") (A") (A") (A') (A') (A') (A") (A') (A") (A")
                 (A') (A") (A') (A") (A') (A") (A") (A') (A") (A')
                 (A") (A') (A') (A") (A") (A') (A") (A') (A") (A')
                 (A') (A") (A") (A') (A') (A") (A') (A") (A') (A')
                 (A") (A') (A") (A') (A") (A') (A") (A') (A') (A")
                 (A') (A") (A') (A') (A") (A") (A') (A") (A') (A')
[...]
                 (A') (A') (A") (A") (A') (A") (A') (A") (A') (A')
                 (A") (A") (A')
       Virtual   (A') (A") (A") (A') (A') (A") (A') (A') (A') (A")
                 (A") (A') (A") (A') (A") (A') (A") (A") (A') (A")
                 (A') (A') (A") (A') (A") (A') (A') (A') (A') (A")
                 (A") (A") (A") (A') (A') (A") (A') (A") (A') (A")
                 (A') (A') (A') (A") (A') (A") (A") (A') (A') (A")
                 (A") (A') (A') (A") (A') (A") (A") (A") (A') (A")
                 (A') (A') (A') (A') (A') (A") (A') (A') (A") (A")
                 (A") (A') (A') (A') (A") (A') (A") (A") (A") (A')
                 (A') (A") (A') (A") (A") (A') (A") (A') (A') (A')
                 (A') (A') (A") (A") (A") (A") (A') (A") (A') (A")
                 (A') (A') (A') (A") (A") (A') (A') (A") (A') (A")
                 (A') (A") (A") (A") (A') (A') (A") (A') (A') (A")
                 (A') (A") (A") (A') (A') (A") (A') (A") (A') (A")
                 (A") (A') (A') (A') (A') (A") (A") (A") (A') (A")
                 (A') (A") (A') (A") (A') (A') (A") (A") (A') (A")
                 (A') (A") (A') (A") (A') (A') (A") (A') (A") (A")
                 (A') (A") (A') (A') (A") (A") (A') (A") (A') (A")
                 (A') (A') (A") (A') (A') (A") (A") (A') (A') (A')
                 (A") (A') (A") (A") (A") (A") (A') (A") (A') (A')
                 (A") (A') (A") (A') (A') (A') (A") (A') (A") (A')
                 (A") (A") (A') (A') (A") (A") (A') (A') (A") (A')
                 (A') (A') (A') (A") (A") (A") (A") (A') (A') (A")
                 (A') (A") (A") (A') (A") (A') (A") (A') (A") (A')
                 (A") (A') (A') (A") (A') (A") (A") (A') (A') (A")
                 (A") (A') (A') (A") (A") (A') (A") (A") (A") (A')
                 (A') (A") (A') (A') (A") (A') (A') (A") (A') (A")
                 (A") (A') (A") (A') (A') (A") (A") (A") (A') (A')
                 (A") (A') (A') (A") (A") (A") (A') (A") (A') (A')
                 (A") (A') (A") (A') (A") (A') (A') (A') (A") (A')
                 (A") (A") (A') (A') (A") (A") (A') (A") (A') (A")
                 (A') (A') (A") (A") (A') (A') (A") (A') (A') (A')
                 (A") (A") (A') (A") (A') (A") (A') (A") (A') (A')
                 (A') (A") (A") (A") (A') (A") (A') (A') (A') (A")
                 (A") (A') (A") (A') (A') (A") (A') (A") (A") (A')
                 (A') (A") (A') (A") (A") (A') (A') (A") (A') (A")
                 (A') (A") (A') (A") (A') (A") (A") (A') (A') (A")
                 (A') (A") (A') (A') (A") (A") (A') (A") (A') (A')
                 (A") (A') (A") (A') (A') (A") (A') (A") (A') (A")
                 (A") (A') (A") (A') (A") (A') (A") (A') (A') (A")
                 (A") (A') (A") (A') (A') (A") (A") (A') (A') (A")
                 (A') (A") (A') (A") (A') (A') (A")
 The electronic state is 1-A'.
 Alpha  occ. eigenvalues --  -10.18931 -10.18930 -10.18896 -10.18895 -10.18848
 Alpha  occ. eigenvalues --  -10.18848 -10.18813 -10.18813 -10.17956 -10.17955
 Alpha  occ. eigenvalues --  -10.17920 -10.17920 -10.17919 -10.17919 -10.17875
 Alpha  occ. eigenvalues --  -10.17875 -10.17863 -10.17863 -10.17808 -10.17808
 Alpha  occ. eigenvalues --  -10.17781 -10.17781  -0.89340  -0.87865  -0.85549
 Alpha  occ. eigenvalues --   -0.82415  -0.79820  -0.78521  -0.78314  -0.75991
 Alpha  occ. eigenvalues --   -0.74255  -0.72901  -0.69196  -0.67344  -0.62728
 Alpha  occ. eigenvalues --   -0.62370  -0.61108  -0.59964  -0.59301  -0.57689
 Alpha  occ. eigenvalues --   -0.52709  -0.52573  -0.52293  -0.49654  -0.48513
 Alpha  occ. eigenvalues --   -0.47160  -0.46110  -0.45590  -0.45476  -0.43928
 Alpha  occ. eigenvalues --   -0.43182  -0.42578  -0.41808  -0.41572  -0.41386
 Alpha  occ. eigenvalues --   -0.40692  -0.40405  -0.39579  -0.38193  -0.36732
 Alpha  occ. eigenvalues --   -0.36341  -0.35550  -0.34094  -0.33809  -0.33058
 Alpha  occ. eigenvalues --   -0.32930  -0.31612  -0.29665  -0.28406  -0.26623
 Alpha  occ. eigenvalues --   -0.24364  -0.22582  -0.17855
 Alpha virt. eigenvalues --   -0.09755  -0.04464  -0.02747  -0.00147   0.02073
 Alpha virt. eigenvalues --    0.02370   0.03189   0.04746   0.04859   0.04871
 Alpha virt. eigenvalues --    0.06161   0.06575   0.07968   0.08162   0.08303
 Alpha virt. eigenvalues --    0.09607   0.10049   0.11524   0.11533   0.13796
 Alpha virt. eigenvalues --    0.14111   0.14670   0.18092   0.18194   0.18832
 Alpha virt. eigenvalues --    0.19391   0.22815   0.23002   0.24379   0.24942
 Alpha virt. eigenvalues --    0.25581   0.27528   0.27575   0.28012   0.28228
 Alpha virt. eigenvalues --    0.28947   0.29389   0.30158   0.30759   0.31175
 Alpha virt. eigenvalues --    0.32897   0.34528   0.36420   0.36484   0.37134
 Alpha virt. eigenvalues --    0.37503   0.37629   0.37651   0.38116   0.38643
 Alpha virt. eigenvalues --    0.39094   0.39439   0.39739   0.40236   0.40435
 Alpha virt. eigenvalues --    0.41918   0.41926   0.41940   0.42289   0.42318
 Alpha virt. eigenvalues --    0.42643   0.43748   0.44233   0.44835   0.45295
 Alpha virt. eigenvalues --    0.45683   0.45924   0.45953   0.46379   0.47165
 Alpha virt. eigenvalues --    0.47805   0.47809   0.47978   0.48073   0.48231
 Alpha virt. eigenvalues --    0.48568   0.49414   0.49572   0.51377   0.51846
 Alpha virt. eigenvalues --    0.52370   0.53118   0.53671   0.55998   0.57923
 Alpha virt. eigenvalues --    0.57955   0.59048   0.59201   0.60433   0.60585
 Alpha virt. eigenvalues --    0.60693   0.61101   0.61690   0.62105   0.62173
 Alpha virt. eigenvalues --    0.63432   0.63481   0.64458   0.64535   0.65533
 Alpha virt. eigenvalues --    0.66693   0.66910   0.67680   0.67724   0.70658
 Alpha virt. eigenvalues --    0.71305   0.71405   0.71494   0.72803   0.73989
 Alpha virt. eigenvalues --    0.75405   0.75894   0.76289   0.77801   0.77809
 Alpha virt. eigenvalues --    0.78943   0.79160   0.79723   0.81162   0.81509
 Alpha virt. eigenvalues --    0.82881   0.83001   0.84383   0.84585   0.84713
 Alpha virt. eigenvalues --    0.88087   0.89711   0.89765   0.91536   0.92083
 Alpha virt. eigenvalues --    0.92578   0.93749   0.95806   0.96107   0.96442
 Alpha virt. eigenvalues --    0.96590   0.96905   0.98547   1.00356   1.01118
 Alpha virt. eigenvalues --    1.02686   1.03027   1.03354   1.04405   1.05244
 Alpha virt. eigenvalues --    1.05439   1.05525   1.05950   1.07395   1.07547
 Alpha virt. eigenvalues --    1.07686   1.08438   1.10005   1.10036   1.12070
 Alpha virt. eigenvalues --    1.13223   1.13544   1.13650   1.14526   1.15341
 Alpha virt. eigenvalues --    1.17432   1.18332   1.19657   1.20432   1.23014
 Alpha virt. eigenvalues --    1.23618   1.27884   1.28234   1.30579   1.32076
 Alpha virt. eigenvalues --    1.32743   1.34942   1.37641   1.39236   1.39896
 Alpha virt. eigenvalues --    1.39942   1.40725   1.42751   1.43476   1.43554
 Alpha virt. eigenvalues --    1.45057   1.46086   1.47119   1.47538   1.48841
 Alpha virt. eigenvalues --    1.49280   1.49417   1.50258   1.50674   1.52268
 Alpha virt. eigenvalues --    1.52650   1.53402   1.54331   1.54372   1.54781
 Alpha virt. eigenvalues --    1.54807   1.57107   1.57715   1.58569   1.59882
 Alpha virt. eigenvalues --    1.60106   1.62692   1.63242   1.64856   1.66641
 Alpha virt. eigenvalues --    1.69292   1.69605   1.69709   1.70649   1.71804
 Alpha virt. eigenvalues --    1.72459   1.72619   1.73075   1.73096   1.73680
 Alpha virt. eigenvalues --    1.77494   1.78519   1.79157   1.79419   1.80511
 Alpha virt. eigenvalues --    1.81616   1.81887   1.82058   1.83581   1.84039
 Alpha virt. eigenvalues --    1.85487   1.87392   1.87456   1.87577   1.87728
 Alpha virt. eigenvalues --    1.88131   1.88613   1.90743   1.91387   1.92190
 Alpha virt. eigenvalues --    1.92193   1.92572   1.92670   1.93517   1.93938
 Alpha virt. eigenvalues --    1.94544   1.95483   1.97262   1.99429   2.00088
 Alpha virt. eigenvalues --    2.00602   2.01362   2.03019   2.05757   2.08293
 Alpha virt. eigenvalues --    2.09111   2.09256   2.09792   2.12192   2.14098
 Alpha virt. eigenvalues --    2.15528   2.15584   2.17200   2.19751   2.20833
 Alpha virt. eigenvalues --    2.21576   2.22525   2.23381   2.24503   2.26441
 Alpha virt. eigenvalues --    2.26972   2.27242   2.27719   2.28046   2.29391
 Alpha virt. eigenvalues --    2.33301   2.35725   2.39155   2.39384   2.40817
 Alpha virt. eigenvalues --    2.42649   2.43076   2.45776   2.45994   2.46870
 Alpha virt. eigenvalues --    2.51623   2.51954   2.53354   2.53485   2.55138
 Alpha virt. eigenvalues --    2.56159   2.58701   2.58838   2.59764   2.59776
 Alpha virt. eigenvalues --    2.60682   2.61147   2.61719   2.62222   2.63349
 Alpha virt. eigenvalues --    2.63999   2.64478   2.66054   2.66794   2.67121
 Alpha virt. eigenvalues --    2.67374   2.68356   2.68872   2.68876   2.69372
 Alpha virt. eigenvalues --    2.69557   2.69907   2.70083   2.70281   2.73482
 Alpha virt. eigenvalues --    2.74771   2.74836   2.76066   2.77101   2.77577
 Alpha virt. eigenvalues --    2.78232   2.78455   2.78850   2.80822   2.82359
 Alpha virt. eigenvalues --    2.85535   2.85993   2.86737   2.87294   2.90966
 Alpha virt. eigenvalues --    2.91783   2.92195   2.93676   2.95232   2.95887
 Alpha virt. eigenvalues --    2.99270   2.99858   3.03165   3.05604   3.06852
 Alpha virt. eigenvalues --    3.07371   3.15988   3.16029   3.16647   3.19843
 Alpha virt. eigenvalues --    3.20017   3.23601   3.29134   3.29680   3.31610
 Alpha virt. eigenvalues --    3.35095   3.35458   3.35677   3.35858   3.38023
 Alpha virt. eigenvalues --    3.39887   3.41413   3.44960   3.45362   3.47993
 Alpha virt. eigenvalues --    3.48278   3.50401   3.53073   3.57439   3.58649
 Alpha virt. eigenvalues --    3.61466   3.62620   3.63208   3.63698   3.65910
 Alpha virt. eigenvalues --    3.67534   3.67678   4.00384   4.00442   4.01859
 Alpha virt. eigenvalues --    4.02182   4.16133   4.16678   4.17360   4.21240
 Alpha virt. eigenvalues --    4.22396   4.22517   4.25488   4.38492   4.62290
 Alpha virt. eigenvalues --    4.79179   4.79740   4.80562   4.82562   4.83014
 Alpha virt. eigenvalues --   23.39176  23.54541  23.69085  23.77378  23.80419
 Alpha virt. eigenvalues --   23.81537  23.86099  23.89067  23.89154  23.92210
 Alpha virt. eigenvalues --   23.97563  23.98365  24.09049  24.09932  24.10529
 Alpha virt. eigenvalues --   24.12220  24.13779  24.14375  24.15775  24.15810
 Alpha virt. eigenvalues --   24.20452  24.20497
          Condensed to atoms (all electrons):
 Mulliken charges:
               1
     1  C    0.000000
     2  C    0.000000
     3  C    0.000000
     4  C    0.000000
     5  C    0.000000
     6  C    0.000000
     7  C    0.000000
     8  C    0.000000
     9  C    0.000000
    10  C    0.000000
    11  H    0.000000
    12  H    0.000000
    13  H    0.000000
    14  H    0.000000
    15  H    0.000000
    16  H    0.000000
    17  C    0.000000
    18  C    0.000000
    19  C    0.000000
    20  C    0.000000
    21  H    0.000000
    22  H    0.000000
    23  C    0.000000
    24  C    0.000000
    25  C    0.000000
    26  C    0.000000
    27  H    0.000000
    28  H    0.000000
    29  C    0.000000
    30  C    0.000000
    31  C    0.000000
    32  C    0.000000
    33  H    0.000000
    34  H    0.000000
    35  H    0.000000
    36  H    0.000000
    37  C   -0.059168
    38  C   -0.059168
    39  C   -0.055977
    40  C   -0.055977
    41  C   -0.092198
    42  C   -0.092198
    43  C   -0.016525
    44  C   -0.054498
    45  C   -0.016525
    46  C   -0.054498
    47  H    0.082122
    48  H    0.074853
    49  H    0.074853
    50  H    0.082122
    51  H    0.094847
    52  H    0.094847
    53  C   -0.020341
    54  C   -0.054498
    55  C   -0.020341
    56  C   -0.054498
    57  H    0.073428
    58  H    0.073428
    59  C   -0.016525
    60  C   -0.059168
    61  C   -0.016525
    62  C   -0.059168
    63  H    0.074853
    64  H    0.074853
    65  C   -0.055977
    66  C   -0.092198
    67  C   -0.055977
    68  C   -0.092198
    69  H    0.082122
    70  H    0.094847
    71  H    0.094847
    72  H    0.082122
 Sum of Mulliken charges =   0.00000
 Mulliken charges with hydrogens summed into heavy atoms:
               1
     1  C    0.000000
     2  C    0.000000
     3  C    0.000000
     4  C    0.000000
     5  C    0.000000
     6  C    0.000000
     7  C    0.000000
     8  C    0.000000
     9  C    0.000000
    10  C    0.000000
    17  C    0.000000
    18  C    0.000000
    19  C    0.000000
    20  C    0.000000
    23  C    0.000000
    24  C    0.000000
    25  C    0.000000
    26  C    0.000000
    29  C    0.000000
    30  C    0.000000
    31  C    0.000000
    32  C    0.000000
    37  C   -0.059168
    38  C   -0.059168
    39  C    0.026144
    40  C    0.026144
    41  C    0.002649
    42  C    0.002649
    43  C    0.058328
    44  C   -0.054498
    45  C    0.058328
    46  C   -0.054498
    53  C    0.053087
    54  C   -0.054498
    55  C    0.053087
    56  C   -0.054498
    59  C    0.058328
    60  C   -0.059168
    61  C    0.058328
    62  C   -0.059168
    65  C    0.026144
    66  C    0.002649
    67  C    0.026144
    68  C    0.002649
         Mulliken charges condensed to fragments:
      1      0.000000
      2      0.000000
 Electronic spatial extent (au):  <R**2>=          21061.7192
 Charge=              0.0000 electrons
 Dipole moment (field-independent basis, Debye):
    X=              0.0000    Y=              0.0000    Z=              0.0000  Tot=              0.0000
 Quadrupole moment (field-independent basis, Debye-Ang):
   XX=           -136.3921   YY=           -110.7480   ZZ=           -109.0115
   XY=              0.0000   XZ=              0.0000   YZ=              0.0000
 Traceless Quadrupole moment (field-independent basis, Debye-Ang):
   XX=            -17.6749   YY=              7.9692   ZZ=              9.7057
   XY=              0.0000   XZ=              0.0000   YZ=              0.0000
 Octapole moment (field-independent basis, Debye-Ang**2):
  XXX=           1374.3235  YYY=           1115.9273  ZZZ=              0.0000  XYY=            371.9758
  XXY=            458.1078  XXZ=              0.0000  XZZ=            366.1431  YZZ=            366.1431
  YYZ=              0.0000  XYZ=              0.0000
 Hexadecapole moment (field-independent basis, Debye-Ang**3):
 XXXX=          -9386.4415 YYYY=          -8612.9742 ZZZZ=         -10461.4324 XXXY=          -4616.0188
 XXXZ=              0.0000 YYYX=          -3748.1287 YYYZ=              0.0000 ZZZX=              0.0000
 ZZZY=              0.0000 XXYY=          -3044.4645 XXZZ=          -3437.7177 YYZZ=          -3199.0001
 XXYZ=              0.0000 YYXZ=              0.0000 ZZXY=          -1229.7857
 N-N= 1.494327111716D+03 E-N=-4.953709174967D+03  KE= 8.433374904891D+02
 Symmetry A'   KE= 4.567052305374D+02
 Symmetry A"   KE= 3.866322599518D+02
 No NMR shielding tensors so no spin-rotation constants.
 Leave Link  601 at Wed Sep 27 17:17:18 2023, MaxMem=  3221225472 cpu:              18.6 elap:               0.5
 (Enter /home/center/opt/aarch64/apps/gaussian16/c01/g16/l122.exe)
 CPIOFr:  IOpCl= 0 IRwI=-1 IRwCP=  731 ICalc=  4 LCPTot=     1419224 Len1MO=     3708034 IndFrg=    19959394
 Restoring MOs from calculation   1 to rwf.
 CPIOFr:  IOpCl= 0 IRwI=-2 IRwCP=  731 ICalc=  0 LCPTot=     1419224 Len1MO=     3708034 IndFrg=     5127258
 Counterpoise corrected energy =   -1694.040399216833
                   BSSE energy =      -0.000001266000
              sum of fragments =   -1694.039683044256
           complexation energy =      -0.45 kcal/mole (raw)
           complexation energy =      -0.45 kcal/mole (corrected)
 Leave Link  122 at Wed Sep 27 17:17:21 2023, MaxMem=  3221225472 cpu:               8.3 elap:               0.3
 (Enter /home/center/opt/aarch64/apps/gaussian16/c01/g16/l9999.exe)

 Test job not archived.
 1\1\GINC-FX0416\SP\RB3LYP\6-311G(d,p)\C44H28\Z40145W\27-Sep-2023\0\\#P
  TEST b3lyp/6-311G** EmpiricalDispersion=GD3 counterpoise=2\\pentacene
 _A1=0_A2=0_A3=45_p2\\0,1\C,0,-0.5039478476,0.5239478476,-3.6612755801\
 C,0,0.5239480325,-0.5039480325,-3.6612755629\C,0,-0.9861248463,1.00612
 48463,-4.9235927708\C,0,1.0061250889,-0.9861250889,-4.9235926697\C,0,-
 0.4963213507,0.5163213507,-6.096356521\C,0,0.5163216812,-0.4963216812,
 -6.0963564796\C,0,-0.9844684311,1.0044684311,-2.4533174875\C,0,-0.5044
 88426,0.524488426,-1.2140288145\C,0,1.0044685359,-0.9844685359,-2.4533
 173917\C,0,0.5244885437,-0.5044885437,-1.2140288362\H,0,-1.7533559667,
 1.7733559667,-4.9232600459\H,0,-1.7521866813,1.7721866813,-2.453928581
 5\H,0,1.7721859268,-1.7521859268,-2.4539284818\H,0,1.7733558421,-1.753
 3558421,-4.9232597785\H,0,0.8905568758,-0.8705568758,-7.0425276922\H,0
 ,-0.8705565046,0.8905565046,-7.042527775\C,0,-0.9848184961,1.004818496
 1,0.0099998782\C,0,-0.5044883957,0.5244883957,1.2340295553\C,0,1.00481
 85643,-0.9848185643,0.0099998696\C,0,0.5244885146,-0.5044885146,1.2340
 295261\H,0,-1.7524699697,1.7724699697,0.0099999205\H,0,1.772468921,-1.
 752468921,0.0099999641\C,0,-0.9844683048,1.0044683048,2.4733171385\C,0
 ,-0.5039477114,0.5239477114,3.681276331\C,0,1.0044684211,-0.9844684211
 ,2.4733170835\C,0,0.5239479079,-0.5039479079,3.6812763217\H,0,-1.75218
 65527,1.7721865527,2.4739285326\H,0,1.7721858092,-1.7521858092,2.47392
 83796\C,0,-0.9861245177,1.0061245177,4.9435920588\C,0,-0.4963209372,0.
 5163209372,6.116356633\C,0,1.0061247659,-0.9861247659,4.9435919377\C,0
 ,0.5163212637,-0.4963212637,6.1163566075\H,0,-1.7533556504,1.773355650
 4,4.9432601504\H,0,-0.8705567426,0.8905567426,7.0625274368\H,0,0.89055
 70967,-0.8705570967,7.0625272142\H,0,1.7733555414,-1.7533555414,4.9432
 599297\C,0,8.9960521524,0.5239478476,-3.6612755801\C,0,10.0239480325,-
 0.5039480325,-3.6612755629\C,0,8.5138751537,1.0061248463,-4.9235927708
 \C,0,10.5061250889,-0.9861250889,-4.9235926697\C,0,9.0036786493,0.5163
 213507,-6.096356521\C,0,10.0163216812,-0.4963216812,-6.0963564796\C,0,
 8.5155315689,1.0044684311,-2.4533174875\C,0,8.995511574,0.524488426,-1
 .2140288145\C,0,10.5044685359,-0.9844685359,-2.4533173917\C,0,10.02448
 85437,-0.5044885437,-1.2140288362\H,0,7.7466440333,1.7733559667,-4.923
 2600459\H,0,7.7478133187,1.7721866813,-2.4539285815\H,0,11.2721859268,
 -1.7521859268,-2.4539284818\H,0,11.2733558421,-1.7533558421,-4.9232597
 785\H,0,10.3905568758,-0.8705568758,-7.0425276922\H,0,8.6294434954,0.8
 905565046,-7.042527775\C,0,8.5151815039,1.0048184961,0.0099998782\C,0,
 8.9955116043,0.5244883957,1.2340295553\C,0,10.5048185643,-0.9848185643
 ,0.0099998696\C,0,10.0244885146,-0.5044885146,1.2340295261\H,0,7.74753
 00303,1.7724699697,0.0099999205\H,0,11.272468921,-1.752468921,0.009999
 9641\C,0,8.5155316952,1.0044683048,2.4733171385\C,0,8.9960522886,0.523
 9477114,3.681276331\C,0,10.5044684211,-0.9844684211,2.4733170835\C,0,1
 0.0239479079,-0.5039479079,3.6812763217\H,0,7.7478134473,1.7721865527,
 2.4739285326\H,0,11.2721858092,-1.7521858092,2.4739283796\C,0,8.513875
 4823,1.0061245177,4.9435920588\C,0,9.0036790628,0.5163209372,6.1163566
 33\C,0,10.5061247659,-0.9861247659,4.9435919377\C,0,10.0163212637,-0.4
 963212637,6.1163566075\H,0,7.7466443496,1.7733556504,4.9432601504\H,0,
 8.6294432574,0.8905567426,7.0625274368\H,0,10.3905570967,-0.8705570967
 ,7.0625272142\H,0,11.2733555414,-1.7533555414,4.9432599297\\Version=Fu
 jitsu-Arm-G16RevC.01\State=1-A'\HF=-847.0198415\RMSD=3.182e-09\Dipole=
 0.0000222,-0.0000221,0.\Quadrupole=-7.6759624,-6.7547486,14.430711,-18
 .5422722,0.,0.\PG=CS [SG(C4H4),X(C40H24)]\\@


 A COMPLEXITY IS MERELY A DISARRANGEMENT OF SIMPLICITIES.

                                    -- G. O. ABELL IN "EXPLORATION OF THE UNIVERSE"
 Job cpu time:       0 days  2 hours 36 minutes 43.6 seconds.
 Elapsed time:       0 days  0 hours  4 minutes 11.2 seconds.
 File lengths (MBytes):  RWF=    718 Int=      0 D2E=      0 Chk=    208 Scr=      1
 Normal termination of Gaussian 16 at Wed Sep 27 17:17:26 2023.
