 Entering Gaussian System, Link 0=g16
 Initial command:
 /home/center/opt/aarch64/apps/gaussian16/c01/g16/l1.exe "/data/tmp/Gtmp/1006974/Gau-50.inp" -scrdir="/data/tmp/Gtmp/1006974/"
 Entering Link 1 = /home/center/opt/aarch64/apps/gaussian16/c01/g16/l1.exe PID=        51.
  
 Copyright (c) 1988-2019, Gaussian, Inc.  All Rights Reserved.
  
 This is part of the Gaussian(R) 16 program.  It is based on
 the Gaussian(R) 09 system (copyright 2009, Gaussian, Inc.),
 the Gaussian(R) 03 system (copyright 2003, Gaussian, Inc.),
 the Gaussian(R) 98 system (copyright 1998, Gaussian, Inc.),
 the Gaussian(R) 94 system (copyright 1995, Gaussian, Inc.),
 the Gaussian 92(TM) system (copyright 1992, Gaussian, Inc.),
 the Gaussian 90(TM) system (copyright 1990, Gaussian, Inc.),
 the Gaussian 88(TM) system (copyright 1988, Gaussian, Inc.),
 the Gaussian 86(TM) system (copyright 1986, Carnegie Mellon
 University), and the Gaussian 82(TM) system (copyright 1983,
 Carnegie Mellon University). Gaussian is a federally registered
 trademark of Gaussian, Inc.
  
 This software contains proprietary and confidential information,
 including trade secrets, belonging to Gaussian, Inc.
  
 This software is provided under written license and may be
 used, copied, transmitted, or stored only in accord with that
 written license.
  
 The following legend is applicable only to US Government
 contracts under FAR:
  
                    RESTRICTED RIGHTS LEGEND
  
 Use, reproduction and disclosure by the US Government is
 subject to restrictions as set forth in subparagraphs (a)
 and (c) of the Commercial Computer Software - Restricted
 Rights clause in FAR 52.227-19.
  
 Gaussian, Inc.
 340 Quinnipiac St., Bldg. 40, Wallingford CT 06492
  
  
 ---------------------------------------------------------------
 Warning -- This program may not be used in any manner that
 competes with the business of Gaussian, Inc. or will provide
 assistance to any competitor of Gaussian, Inc.  The licensee
 of this program is prohibited from giving any competitor of
 Gaussian, Inc. access to this program.  By using this program,
 the user acknowledges that Gaussian, Inc. is engaged in the
 business of creating and licensing software in the field of
 computational chemistry and represents and warrants to the
 licensee that it is not a competitor of Gaussian, Inc. and that
 it will not use this program in any manner prohibited above.
 ---------------------------------------------------------------
  

 Cite this work as:
 Gaussian 16, Revision C.01,
 M. J. Frisch, G. W. Trucks, H. B. Schlegel, G. E. Scuseria, 
 M. A. Robb, J. R. Cheeseman, G. Scalmani, V. Barone, 
 G. A. Petersson, H. Nakatsuji, X. Li, M. Caricato, A. V. Marenich, 
 J. Bloino, B. G. Janesko, R. Gomperts, B. Mennucci, H. P. Hratchian, 
 J. V. Ortiz, A. F. Izmaylov, J. L. Sonnenberg, D. Williams-Young, 
 F. Ding, F. Lipparini, F. Egidi, J. Goings, B. Peng, A. Petrone, 
 T. Henderson, D. Ranasinghe, V. G. Zakrzewski, J. Gao, N. Rega, 
 G. Zheng, W. Liang, M. Hada, M. Ehara, K. Toyota, R. Fukuda, 
 J. Hasegawa, M. Ishida, T. Nakajima, Y. Honda, O. Kitao, H. Nakai, 
 T. Vreven, K. Throssell, J. A. Montgomery, Jr., J. E. Peralta, 
 F. Ogliaro, M. J. Bearpark, J. J. Heyd, E. N. Brothers, K. N. Kudin, 
 V. N. Staroverov, T. A. Keith, R. Kobayashi, J. Normand, 
 K. Raghavachari, A. P. Rendell, J. C. Burant, S. S. Iyengar, 
 J. Tomasi, M. Cossi, J. M. Millam, M. Klene, C. Adamo, R. Cammi, 
 J. W. Ochterski, R. L. Martin, K. Morokuma, O. Farkas, 
 J. B. Foresman, and D. J. Fox, Gaussian, Inc., Wallingford CT, 2019.
 
 ************************************************
 Gaussian 16:  Fujitsu-Arm-G16RevC.01  3-Jul-2019
                   27-Sep-2023 
 ************************************************
 %mem=24GB
 %nproc=42
 Will use up to   42 processors via shared memory.
 -------------------------------------------------------------
 #P TEST b3lyp/6-311G** EmpiricalDispersion=GD3 counterpoise=2
 -------------------------------------------------------------
 1/38=1,62=2,172=1/1;
 2/12=2,17=6,18=5,40=1/2;
 1/38=1,53=2,62=2,63=1/22;
 3/5=4,6=6,7=101,11=2,25=1,30=1,74=-5,124=31/1,2,3;
 4//1;
 5/5=2,38=5/2;
 6/7=2,8=2,9=2,10=2,28=1/1;
 1/53=2,62=2,63=1/22;
 3/5=7,6=11,7=101,11=2,25=1,30=1,74=-5,82=7,124=31/1,2,3;
 4//1;
 5/5=2,38=5/2;
 6/7=2,8=2,9=2,10=2,28=1/1;
 1/53=2,62=2,63=1/22(-4);
 99/5=1,9=1/99;
 Leave Link    1 at Wed Sep 27 16:57:15 2023, MaxMem=  3221225472 cpu:               6.5 elap:               0.2
 (Enter /home/center/opt/aarch64/apps/gaussian16/c01/g16/l101.exe)
 ----------------------------
 pentacene_A1=0_A2=0_A3=45_t1
 ----------------------------
 Symbolic Z-matrix:
 Charge =  0 Multiplicity = 1 in supermolecule
 Charge =  0 Multiplicity = 1 in fragment      1.
 Charge =  0 Multiplicity = 1 in fragment      2.
 C(Fragment=1)        -0.50395   0.52395  -3.66128 
 C(Fragment=1)         0.52395  -0.50395  -3.66128 
 C(Fragment=1)        -0.98612   1.00612  -4.92359 
 C(Fragment=1)         1.00613  -0.98613  -4.92359 
 C(Fragment=1)        -0.49632   0.51632  -6.09636 
 C(Fragment=1)         0.51632  -0.49632  -6.09636 
 C(Fragment=1)        -0.98447   1.00447  -2.45332 
 C(Fragment=1)        -0.50449   0.52449  -1.21403 
 C(Fragment=1)         1.00447  -0.98447  -2.45332 
 C(Fragment=1)         0.52449  -0.50449  -1.21403 
 H(Fragment=1)        -1.75336   1.77336  -4.92326 
 H(Fragment=1)        -1.75219   1.77219  -2.45393 
 H(Fragment=1)         1.77219  -1.75219  -2.45393 
 H(Fragment=1)         1.77336  -1.75336  -4.92326 
 H(Fragment=1)         0.89056  -0.87056  -7.04253 
 H(Fragment=1)        -0.87056   0.89056  -7.04253 
 C(Fragment=1)        -0.98482   1.00482   0.01 
 C(Fragment=1)        -0.50449   0.52449   1.23403 
 C(Fragment=1)         1.00482  -0.98482   0.01 
 C(Fragment=1)         0.52449  -0.50449   1.23403 
 H(Fragment=1)        -1.75247   1.77247   0.01 
 H(Fragment=1)         1.77247  -1.75247   0.01 
 C(Fragment=1)        -0.98447   1.00447   2.47332 
 C(Fragment=1)        -0.50395   0.52395   3.68128 
 C(Fragment=1)         1.00447  -0.98447   2.47332 
 C(Fragment=1)         0.52395  -0.50395   3.68128 
 H(Fragment=1)        -1.75219   1.77219   2.47393 
 H(Fragment=1)         1.77219  -1.75219   2.47393 
 C(Fragment=1)        -0.98612   1.00612   4.94359 
 C(Fragment=1)        -0.49632   0.51632   6.11636 
 C(Fragment=1)         1.00612  -0.98612   4.94359 
 C(Fragment=1)         0.51632  -0.49632   6.11636 
 H(Fragment=1)        -1.75336   1.77336   4.94326 
 H(Fragment=1)        -0.87056   0.89056   7.06253 
 H(Fragment=1)         0.89056  -0.87056   7.06253 
 H(Fragment=1)         1.77336  -1.75336   4.94326 
 C(Fragment=2)         4.52395   3.77395  -3.66128 
 C(Fragment=2)         3.49605   2.74605  -3.66128 
 C(Fragment=2)         5.00612   4.25612  -4.92359 
 C(Fragment=2)         3.01387   2.26387  -4.92359 
 C(Fragment=2)         4.51632   3.76632  -6.09636 
 C(Fragment=2)         3.50368   2.75368  -6.09636 
 C(Fragment=2)         5.00447   4.25447  -2.45332 
 C(Fragment=2)         4.52449   3.77449  -1.21403 
 C(Fragment=2)         3.01553   2.26553  -2.45332 
 C(Fragment=2)         3.49551   2.74551  -1.21403 
 H(Fragment=2)         5.77336   5.02336  -4.92326 
 H(Fragment=2)         5.77219   5.02219  -2.45393 
 H(Fragment=2)         2.24781   1.49781  -2.45393 
 H(Fragment=2)         2.24664   1.49664  -4.92326 
 H(Fragment=2)         3.12944   2.37944  -7.04253 
 H(Fragment=2)         4.89056   4.14056  -7.04253 
 C(Fragment=2)         5.00482   4.25482   0.01 
 C(Fragment=2)         4.52449   3.77449   1.23403 
 C(Fragment=2)         3.01518   2.26518   0.01 
 C(Fragment=2)         3.49551   2.74551   1.23403 
 H(Fragment=2)         5.77247   5.02247   0.01 
 H(Fragment=2)         2.24753   1.49753   0.01 
 C(Fragment=2)         5.00447   4.25447   2.47332 
 C(Fragment=2)         4.52395   3.77395   3.68128 
 C(Fragment=2)         3.01553   2.26553   2.47332 
 C(Fragment=2)         3.49605   2.74605   3.68128 
 H(Fragment=2)         5.77219   5.02219   2.47393 
 H(Fragment=2)         2.24781   1.49781   2.47393 
 C(Fragment=2)         5.00612   4.25612   4.94359 
 C(Fragment=2)         4.51632   3.76632   6.11636 
 C(Fragment=2)         3.01388   2.26388   4.94359 
 C(Fragment=2)         3.50368   2.75368   6.11636 
 H(Fragment=2)         5.77336   5.02336   4.94326 
 H(Fragment=2)         4.89056   4.14056   7.06253 
 H(Fragment=2)         3.12944   2.37944   7.06253 
 H(Fragment=2)         2.24664   1.49664   4.94326 
 
 ITRead=  0  0  0  0  0  0  0  0  0  0  0  0  0  0  0  0  0  0  0  0
 ITRead=  0  0  0  0  0  0  0  0  0  0  0  0  0  0  0  0  0  0  0  0
 ITRead=  0  0  0  0  0  0  0  0  0  0  0  0  0  0  0  0  0  0  0  0
 ITRead=  0  0  0  0  0  0  0  0  0  0  0  0
 MicOpt= -1 -1 -1 -1 -1 -1 -1 -1 -1 -1 -1 -1 -1 -1 -1 -1 -1 -1 -1 -1
 MicOpt= -1 -1 -1 -1 -1 -1 -1 -1 -1 -1 -1 -1 -1 -1 -1 -1 -1 -1 -1 -1
 MicOpt= -1 -1 -1 -1 -1 -1 -1 -1 -1 -1 -1 -1 -1 -1 -1 -1 -1 -1 -1 -1
 MicOpt= -1 -1 -1 -1 -1 -1 -1 -1 -1 -1 -1 -1
 NAtoms=     72 NQM=       72 NQMF=       0 NMMI=      0 NMMIF=      0
                NMic=       0 NMicF=      0.
                    Isotopes and Nuclear Properties:
 (Nuclear quadrupole moments (NQMom) in fm**2, nuclear magnetic moments (NMagM)
  in nuclear magnetons)

  Atom         1           2           3           4           5           6           7           8           9          10
 IAtWgt=          12          12          12          12          12          12          12          12          12          12
 AtmWgt=  12.0000000  12.0000000  12.0000000  12.0000000  12.0000000  12.0000000  12.0000000  12.0000000  12.0000000  12.0000000
 NucSpn=           0           0           0           0           0           0           0           0           0           0
 AtZEff=   0.0000000   0.0000000   0.0000000   0.0000000   0.0000000   0.0000000   0.0000000   0.0000000   0.0000000   0.0000000
 NQMom=    0.0000000   0.0000000   0.0000000   0.0000000   0.0000000   0.0000000   0.0000000   0.0000000   0.0000000   0.0000000
 NMagM=    0.0000000   0.0000000   0.0000000   0.0000000   0.0000000   0.0000000   0.0000000   0.0000000   0.0000000   0.0000000
 AtZNuc=   6.0000000   6.0000000   6.0000000   6.0000000   6.0000000   6.0000000   6.0000000   6.0000000   6.0000000   6.0000000

  Atom        11          12          13          14          15          16          17          18          19          20
 IAtWgt=           1           1           1           1           1           1          12          12          12          12
 AtmWgt=   1.0078250   1.0078250   1.0078250   1.0078250   1.0078250   1.0078250  12.0000000  12.0000000  12.0000000  12.0000000
 NucSpn=           1           1           1           1           1           1           0           0           0           0
 AtZEff=   0.0000000   0.0000000   0.0000000   0.0000000   0.0000000   0.0000000   0.0000000   0.0000000   0.0000000   0.0000000
 NQMom=    0.0000000   0.0000000   0.0000000   0.0000000   0.0000000   0.0000000   0.0000000   0.0000000   0.0000000   0.0000000
 NMagM=    2.7928460   2.7928460   2.7928460   2.7928460   2.7928460   2.7928460   0.0000000   0.0000000   0.0000000   0.0000000
 AtZNuc=   1.0000000   1.0000000   1.0000000   1.0000000   1.0000000   1.0000000   6.0000000   6.0000000   6.0000000   6.0000000

  Atom        21          22          23          24          25          26          27          28          29          30
 IAtWgt=           1           1          12          12          12          12           1           1          12          12
 AtmWgt=   1.0078250   1.0078250  12.0000000  12.0000000  12.0000000  12.0000000   1.0078250   1.0078250  12.0000000  12.0000000
 NucSpn=           1           1           0           0           0           0           1           1           0           0
 AtZEff=   0.0000000   0.0000000   0.0000000   0.0000000   0.0000000   0.0000000   0.0000000   0.0000000   0.0000000   0.0000000
 NQMom=    0.0000000   0.0000000   0.0000000   0.0000000   0.0000000   0.0000000   0.0000000   0.0000000   0.0000000   0.0000000
 NMagM=    2.7928460   2.7928460   0.0000000   0.0000000   0.0000000   0.0000000   2.7928460   2.7928460   0.0000000   0.0000000
 AtZNuc=   1.0000000   1.0000000   6.0000000   6.0000000   6.0000000   6.0000000   1.0000000   1.0000000   6.0000000   6.0000000

  Atom        31          32          33          34          35          36          37          38          39          40
 IAtWgt=          12          12           1           1           1           1          12          12          12          12
 AtmWgt=  12.0000000  12.0000000   1.0078250   1.0078250   1.0078250   1.0078250  12.0000000  12.0000000  12.0000000  12.0000000
 NucSpn=           0           0           1           1           1           1           0           0           0           0
 AtZEff=   0.0000000   0.0000000   0.0000000   0.0000000   0.0000000   0.0000000   0.0000000   0.0000000   0.0000000   0.0000000
 NQMom=    0.0000000   0.0000000   0.0000000   0.0000000   0.0000000   0.0000000   0.0000000   0.0000000   0.0000000   0.0000000
 NMagM=    0.0000000   0.0000000   2.7928460   2.7928460   2.7928460   2.7928460   0.0000000   0.0000000   0.0000000   0.0000000
 AtZNuc=   6.0000000   6.0000000   1.0000000   1.0000000   1.0000000   1.0000000   6.0000000   6.0000000   6.0000000   6.0000000

  Atom        41          42          43          44          45          46          47          48          49          50
 IAtWgt=          12          12          12          12          12          12           1           1           1           1
 AtmWgt=  12.0000000  12.0000000  12.0000000  12.0000000  12.0000000  12.0000000   1.0078250   1.0078250   1.0078250   1.0078250
 NucSpn=           0           0           0           0           0           0           1           1           1           1
 AtZEff=   0.0000000   0.0000000   0.0000000   0.0000000   0.0000000   0.0000000   0.0000000   0.0000000   0.0000000   0.0000000
 NQMom=    0.0000000   0.0000000   0.0000000   0.0000000   0.0000000   0.0000000   0.0000000   0.0000000   0.0000000   0.0000000
 NMagM=    0.0000000   0.0000000   0.0000000   0.0000000   0.0000000   0.0000000   2.7928460   2.7928460   2.7928460   2.7928460
 AtZNuc=   6.0000000   6.0000000   6.0000000   6.0000000   6.0000000   6.0000000   1.0000000   1.0000000   1.0000000   1.0000000

  Atom        51          52          53          54          55          56          57          58          59          60
 IAtWgt=           1           1          12          12          12          12           1           1          12          12
 AtmWgt=   1.0078250   1.0078250  12.0000000  12.0000000  12.0000000  12.0000000   1.0078250   1.0078250  12.0000000  12.0000000
 NucSpn=           1           1           0           0           0           0           1           1           0           0
 AtZEff=   0.0000000   0.0000000   0.0000000   0.0000000   0.0000000   0.0000000   0.0000000   0.0000000   0.0000000   0.0000000
 NQMom=    0.0000000   0.0000000   0.0000000   0.0000000   0.0000000   0.0000000   0.0000000   0.0000000   0.0000000   0.0000000
 NMagM=    2.7928460   2.7928460   0.0000000   0.0000000   0.0000000   0.0000000   2.7928460   2.7928460   0.0000000   0.0000000
 AtZNuc=   1.0000000   1.0000000   6.0000000   6.0000000   6.0000000   6.0000000   1.0000000   1.0000000   6.0000000   6.0000000

  Atom        61          62          63          64          65          66          67          68          69          70
 IAtWgt=          12          12           1           1          12          12          12          12           1           1
 AtmWgt=  12.0000000  12.0000000   1.0078250   1.0078250  12.0000000  12.0000000  12.0000000  12.0000000   1.0078250   1.0078250
 NucSpn=           0           0           1           1           0           0           0           0           1           1
 AtZEff=   0.0000000   0.0000000   0.0000000   0.0000000   0.0000000   0.0000000   0.0000000   0.0000000   0.0000000   0.0000000
 NQMom=    0.0000000   0.0000000   0.0000000   0.0000000   0.0000000   0.0000000   0.0000000   0.0000000   0.0000000   0.0000000
 NMagM=    0.0000000   0.0000000   2.7928460   2.7928460   0.0000000   0.0000000   0.0000000   0.0000000   2.7928460   2.7928460
 AtZNuc=   6.0000000   6.0000000   1.0000000   1.0000000   6.0000000   6.0000000   6.0000000   6.0000000   1.0000000   1.0000000

  Atom        71          72
 IAtWgt=           1           1
 AtmWgt=   1.0078250   1.0078250
 NucSpn=           1           1
 AtZEff=   0.0000000   0.0000000
 NQMom=    0.0000000   0.0000000
 NMagM=    2.7928460   2.7928460
 AtZNuc=   1.0000000   1.0000000
 Leave Link  101 at Wed Sep 27 16:57:17 2023, MaxMem=  3221225472 cpu:               2.6 elap:               0.1
 (Enter /home/center/opt/aarch64/apps/gaussian16/c01/g16/l202.exe)
 Stoichiometry    C44H28
 Framework group  CS[SG(C4H4),X(C40H24)]
 Deg. of freedom   109
 Full point group                 CS      NOp   2
 Largest Abelian subgroup         CS      NOp   2
 Largest concise Abelian subgroup CS      NOp   2
                         Standard orientation:                         
 ---------------------------------------------------------------------
 Center     Atomic      Atomic             Coordinates (Angstroms)
 Number     Number       Type             X           Y           Z
 ---------------------------------------------------------------------
      1          6           0        0.991997   -2.563262    3.671276
      2          6           0       -0.461667   -2.563262    3.671276
      3          6           0        1.673898   -2.563262    4.933593
      4          6           0       -1.143569   -2.563262    4.933593
      5          6           0        0.981212   -2.563262    6.106357
      6          6           0       -0.450882   -2.563262    6.106357
      7          6           0        1.671556   -2.563262    2.463318
      8          6           0        0.992762   -2.563262    1.224029
      9          6           0       -1.141226   -2.563262    2.463317
     10          6           0       -0.462432   -2.563262    1.224029
     11          1           0        2.758927   -2.563262    4.933260
     12          1           0        2.757273   -2.563262    2.463929
     13          1           0       -2.226942   -2.563262    2.463929
     14          1           0       -2.228597   -2.563262    4.933260
     15          1           0       -0.980130   -2.563262    7.052528
     16          1           0        1.510460   -2.563262    7.052528
     17          6           0        1.672051   -2.563262    0.000000
     18          6           0        0.992762   -2.563262   -1.224029
     19          6           0       -1.141721   -2.563262    0.000000
     20          6           0       -0.462432   -2.563262   -1.224029
     21          1           0        2.757674   -2.563262    0.000000
     22          1           0       -2.227342   -2.563262    0.000000
     23          6           0        1.671556   -2.563262   -2.463318
     24          6           0        0.991997   -2.563262   -3.671276
     25          6           0       -1.141226   -2.563262   -2.463317
     26          6           0       -0.461667   -2.563262   -3.671276
     27          1           0        2.757273   -2.563262   -2.463929
     28          1           0       -2.226942   -2.563262   -2.463929
     29          6           0        1.673898   -2.563262   -4.933593
     30          6           0        0.981212   -2.563262   -6.106357
     31          6           0       -1.143569   -2.563262   -4.933593
     32          6           0       -0.450882   -2.563262   -6.106357
     33          1           0        2.758927   -2.563262   -4.933260
     34          1           0        1.510460   -2.563262   -7.052528
     35          1           0       -0.980130   -2.563262   -7.052528
     36          1           0       -2.228597   -2.563262   -4.933260
     37          6           0       -0.265165    3.290094    3.671276
     38          6           0       -0.265165    1.836430    3.671276
     39          6           0       -0.265165    3.971995    4.933593
     40          6           0       -0.265165    1.154529    4.933593
     41          6           0       -0.265165    3.279309    6.106357
     42          6           0       -0.265165    1.847215    6.106357
     43          6           0       -0.265165    3.969653    2.463318
     44          6           0       -0.265165    3.290859    1.224029
     45          6           0       -0.265165    1.156871    2.463317
     46          6           0       -0.265165    1.835665    1.224029
     47          1           0       -0.265165    5.057024    4.933260
     48          1           0       -0.265165    5.055370    2.463929
     49          1           0       -0.265165    0.071155    2.463929
     50          1           0       -0.265165    0.069500    4.933260
     51          1           0       -0.265165    1.317967    7.052528
     52          1           0       -0.265165    3.808557    7.052528
     53          6           0       -0.265165    3.970148    0.000000
     54          6           0       -0.265165    3.290859   -1.224029
     55          6           0       -0.265165    1.156376    0.000000
     56          6           0       -0.265165    1.835665   -1.224029
     57          1           0       -0.265165    5.055771    0.000000
     58          1           0       -0.265165    0.070755    0.000000
     59          6           0       -0.265165    3.969653   -2.463318
     60          6           0       -0.265165    3.290094   -3.671276
     61          6           0       -0.265165    1.156871   -2.463317
     62          6           0       -0.265165    1.836430   -3.671276
     63          1           0       -0.265165    5.055370   -2.463929
     64          1           0       -0.265165    0.071155   -2.463929
     65          6           0       -0.265165    3.971995   -4.933593
     66          6           0       -0.265165    3.279309   -6.106357
     67          6           0       -0.265165    1.154529   -4.933593
     68          6           0       -0.265165    1.847215   -6.106357
     69          1           0       -0.265165    5.057024   -4.933260
     70          1           0       -0.265165    3.808557   -7.052528
     71          1           0       -0.265165    1.317967   -7.052528
     72          1           0       -0.265165    0.069500   -4.933260
 ---------------------------------------------------------------------
 Rotational constants (GHZ):           0.1133755           0.0563744           0.0399246
 Leave Link  202 at Wed Sep 27 16:57:20 2023, MaxMem=  3221225472 cpu:               0.6 elap:               0.0
 (Enter /home/center/opt/aarch64/apps/gaussian16/c01/g16/l122.exe)
 Counterpoise: doing full-system calculation.
 Leave Link  122 at Wed Sep 27 16:57:22 2023, MaxMem=  3221225472 cpu:               0.2 elap:               0.0
 (Enter /home/center/opt/aarch64/apps/gaussian16/c01/g16/l301.exe)
 Standard basis: 6-311G(d,p) (5D, 7F)
 Ernie: Thresh=  0.10000D-02 Tol=  0.10000D-05 Strict=F.
 There are   528 symmetry adapted cartesian basis functions of A'  symmetry.
 There are   476 symmetry adapted cartesian basis functions of A"  symmetry.
 There are   504 symmetry adapted basis functions of A'  symmetry.
 There are   456 symmetry adapted basis functions of A"  symmetry.
   960 basis functions,  1632 primitive gaussians,  1004 cartesian basis functions
   146 alpha electrons      146 beta electrons
       nuclear repulsion energy      4662.5852441163 Hartrees.
 IExCor=  402 DFT=T Ex+Corr=B3LYP ExCW=0 ScaHFX=  0.200000
 ScaDFX=  0.800000  0.720000  1.000000  0.810000 ScalE2=  1.000000  1.000000
 IRadAn=      5 IRanWt=     -1 IRanGd=            0 ICorTp=0 IEmpDi=131
 NAtoms=   72 NActive=   72 NUniq=   40 SFac= 3.24D+00 NAtFMM=   60 NAOKFM=T Big=F
 Integral buffers will be    131072 words long.
 Raffenetti 2 integral format.
 Two-electron integral symmetry is turned on.
 R6Disp:  Grimme-D3 Dispersion energy=       -0.0843422247 Hartrees.
 Nuclear repulsion after empirical dispersion term =     4662.5009018916 Hartrees.
 Leave Link  301 at Wed Sep 27 16:57:24 2023, MaxMem=  3221225472 cpu:               2.0 elap:               0.1
 (Enter /home/center/opt/aarch64/apps/gaussian16/c01/g16/l302.exe)
 NPDir=0 NMtPBC=     1 NCelOv=     1 NCel=       1 NClECP=     1 NCelD=      1
         NCelK=      1 NCelE2=     1 NClLst=     1 CellRange=     0.0.
 One-electron integrals computed using PRISM.
 One-electron integral symmetry used in STVInt
 NBasis=   960 RedAO= T EigKep=  3.76D-05  NBF=   504   456
 NBsUse=   960 1.00D-06 EigRej= -1.00D+00 NBFU=   504   456
 Precomputing XC quadrature grid using
 IXCGrd= 4 IRadAn=           5 IRanWt=          -1 IRanGd=           0 AccXCQ= 0.00D+00.
 Generated NRdTot=       0 NPtTot=           0 NUsed=           0 NTot=          32
 NSgBfM=   991   991   991   991   991 MxSgAt=    72 MxSgA2=    72.
 Leave Link  302 at Wed Sep 27 16:57:28 2023, MaxMem=  3221225472 cpu:              64.3 elap:               1.9
 (Enter /home/center/opt/aarch64/apps/gaussian16/c01/g16/l303.exe)
 DipDrv:  MaxL=1.
 Leave Link  303 at Wed Sep 27 16:57:31 2023, MaxMem=  3221225472 cpu:              13.8 elap:               0.4
 (Enter /home/center/opt/aarch64/apps/gaussian16/c01/g16/l401.exe)
 ExpMin= 1.03D-01 ExpMax= 4.56D+03 ExpMxC= 6.82D+02 IAcc=3 IRadAn=         5 AccDes= 0.00D+00
 Harris functional with IExCor=  402 and IRadAn=       5 diagonalized for initial guess.
 HarFok:  IExCor=  402 AccDes= 0.00D+00 IRadAn=         5 IDoV= 1 UseB2=F ITyADJ=14
 ICtDFT=  3500011 ScaDFX=  1.000000  1.000000  1.000000  1.000000
 FoFCou: FMM=F IPFlag=           0 FMFlag=      100000 FMFlg1=        2000
         NFxFlg=           0 DoJE=T BraDBF=F KetDBF=T FulRan=T
         wScrn=  0.000000 ICntrl=       500 IOpCl=  0 I1Cent=   200000004 NGrid=           0
         NMat0=    1 NMatS0=      1 NMatT0=    0 NMatD0=    1 NMtDS0=    0 NMtDT0=    0
 Petite list used in FoFCou.
 Harris En= -1694.13982092341    
 JPrj=0 DoOrth=F DoCkMO=F.
 Initial guess orbital symmetries:
       Occupied  (A") (A') (A") (A') (A') (A") (A') (A") (A") (A')
                 (A") (A') (A") (A') (A") (A') (A") (A') (A") (A')
                 (A") (A') (A') (A") (A') (A') (A') (A') (A") (A')
                 (A") (A') (A") (A') (A") (A') (A") (A') (A") (A')
                 (A") (A') (A') (A") (A') (A') (A") (A") (A') (A')
                 (A") (A") (A') (A') (A') (A') (A") (A") (A') (A')
                 (A") (A") (A") (A") (A') (A') (A') (A') (A") (A")
                 (A") (A") (A') (A') (A") (A") (A') (A') (A') (A')
                 (A') (A') (A") (A") (A") (A") (A") (A') (A") (A')
                 (A') (A') (A") (A") (A') (A') (A') (A') (A") (A")
                 (A') (A') (A") (A") (A") (A") (A') (A') (A') (A')
                 (A") (A") (A') (A') (A") (A") (A') (A') (A") (A")
                 (A") (A") (A') (A') (A') (A') (A") (A") (A') (A')
                 (A") (A") (A') (A') (A") (A") (A') (A') (A') (A')
                 (A") (A") (A") (A") (A') (A')
       Virtual   (A') (A') (A") (A") (A") (A") (A') (A') (A') (A')
                 (A") (A") (A') (A') (A") (A") (A') (A") (A') (A')
                 (A') (A') (A") (A') (A') (A") (A") (A') (A") (A")
                 (A') (A") (A') (A") (A') (A') (A") (A") (A') (A")
                 (A') (A') (A") (A') (A") (A') (A") (A') (A') (A')
                 (A') (A") (A') (A") (A') (A') (A") (A") (A') (A')
                 (A") (A") (A") (A") (A') (A') (A") (A') (A") (A")
                 (A') (A") (A') (A') (A") (A') (A") (A") (A') (A")
                 (A') (A') (A') (A') (A") (A") (A') (A') (A') (A")
                 (A") (A') (A") (A") (A') (A") (A") (A') (A') (A")
                 (A') (A') (A") (A') (A") (A') (A") (A") (A') (A')
                 (A') (A") (A') (A') (A") (A') (A") (A") (A') (A')
                 (A") (A') (A') (A") (A") (A') (A") (A') (A") (A')
                 (A') (A") (A") (A') (A") (A") (A') (A") (A') (A')
                 (A") (A") (A') (A') (A") (A') (A') (A") (A') (A')
                 (A') (A") (A') (A") (A') (A") (A') (A") (A") (A")
                 (A') (A") (A') (A') (A") (A') (A") (A') (A") (A')
                 (A") (A') (A') (A") (A') (A") (A') (A') (A") (A')
                 (A") (A') (A") (A") (A') (A") (A') (A') (A") (A')
                 (A') (A") (A") (A') (A') (A") (A') (A') (A") (A")
                 (A") (A') (A') (A") (A') (A') (A") (A") (A') (A')
                 (A") (A') (A') (A") (A") (A") (A') (A") (A") (A')
                 (A') (A") (A") (A') (A") (A') (A") (A') (A') (A')
                 (A") (A') (A') (A') (A") (A') (A") (A") (A') (A")
                 (A") (A') (A") (A') (A') (A') (A") (A") (A') (A")
                 (A') (A") (A") (A') (A") (A') (A') (A") (A') (A")
                 (A') (A") (A') (A") (A') (A") (A") (A') (A") (A")
                 (A') (A") (A') (A') (A") (A') (A") (A") (A') (A')
                 (A') (A") (A') (A') (A") (A") (A") (A') (A") (A')
                 (A') (A') (A") (A") (A') (A") (A") (A") (A') (A")
                 (A') (A") (A') (A') (A') (A') (A") (A") (A') (A")
                 (A') (A") (A') (A") (A") (A') (A') (A') (A") (A')
                 (A") (A') (A") (A') (A") (A') (A") (A') (A") (A')
                 (A") (A") (A') (A') (A") (A') (A") (A') (A") (A')
                 (A") (A') (A") (A') (A') (A") (A') (A") (A") (A')
                 (A') (A") (A') (A') (A") (A') (A') (A") (A') (A")
                 (A') (A') (A') (A") (A') (A") (A") (A") (A") (A")
                 (A') (A") (A") (A') (A") (A") (A') (A') (A') (A')
                 (A") (A") (A') (A') (A') (A') (A") (A') (A') (A")
                 (A") (A') (A') (A") (A') (A") (A') (A") (A") (A')
                 (A") (A') (A") (A') (A") (A') (A") (A') (A") (A')
                 (A') (A') (A") (A') (A') (A") (A') (A") (A") (A')
                 (A') (A') (A") (A') (A") (A') (A") (A') (A") (A')
                 (A") (A") (A') (A") (A") (A') (A") (A') (A") (A")
                 (A") (A') (A") (A') (A') (A') (A') (A") (A") (A")
                 (A') (A') (A') (A") (A') (A") (A") (A') (A") (A')
                 (A") (A') (A") (A') (A") (A") (A') (A') (A') (A")
                 (A") (A') (A") (A') (A') (A") (A") (A') (A") (A')
                 (A") (A') (A') (A') (A") (A') (A") (A") (A") (A')
                 (A") (A") (A') (A") (A") (A") (A") (A') (A') (A')
                 (A") (A') (A") (A') (A") (A') (A') (A') (A") (A")
                 (A') (A') (A') (A') (A") (A") (A") (A') (A") (A')
                 (A") (A') (A") (A") (A') (A") (A') (A') (A") (A')
                 (A') (A") (A') (A") (A') (A") (A') (A") (A") (A')
                 (A") (A") (A') (A') (A') (A") (A") (A") (A') (A")
                 (A") (A') (A') (A") (A') (A") (A') (A") (A') (A')
                 (A") (A') (A') (A") (A") (A') (A') (A") (A') (A")
                 (A") (A") (A') (A') (A") (A") (A') (A') (A') (A")
                 (A') (A") (A') (A') (A") (A') (A') (A') (A") (A')
                 (A") (A") (A') (A') (A") (A") (A') (A') (A") (A")
                 (A') (A') (A") (A") (A') (A') (A") (A') (A") (A')
                 (A") (A') (A') (A') (A") (A") (A') (A') (A") (A")
                 (A') (A") (A') (A") (A") (A') (A") (A') (A") (A')
                 (A") (A') (A') (A') (A') (A") (A') (A") (A') (A")
                 (A") (A') (A") (A") (A') (A") (A') (A") (A") (A')
                 (A') (A') (A') (A") (A') (A') (A') (A") (A") (A')
                 (A') (A") (A") (A') (A") (A") (A') (A') (A') (A")
                 (A") (A') (A") (A') (A') (A") (A") (A") (A') (A')
                 (A") (A') (A') (A") (A') (A") (A') (A") (A") (A")
                 (A') (A") (A') (A') (A') (A") (A') (A") (A") (A')
                 (A') (A") (A") (A') (A") (A') (A') (A") (A") (A')
                 (A") (A") (A') (A") (A') (A') (A') (A") (A') (A")
                 (A') (A") (A') (A') (A") (A') (A") (A') (A') (A")
                 (A') (A") (A") (A') (A") (A') (A") (A') (A') (A")
                 (A') (A") (A') (A") (A') (A') (A") (A') (A') (A')
                 (A") (A') (A") (A') (A") (A") (A') (A') (A") (A")
                 (A") (A') (A") (A') (A") (A") (A') (A") (A') (A")
                 (A') (A') (A") (A") (A') (A') (A') (A') (A") (A")
                 (A") (A") (A') (A') (A") (A') (A") (A') (A') (A')
                 (A") (A") (A") (A") (A') (A') (A') (A') (A") (A")
                 (A') (A') (A") (A") (A') (A') (A") (A') (A") (A')
                 (A') (A") (A') (A")
 The electronic state of the initial guess is 1-A'.
 Leave Link  401 at Wed Sep 27 16:57:36 2023, MaxMem=  3221225472 cpu:             101.8 elap:               2.7
 (Enter /home/center/opt/aarch64/apps/gaussian16/c01/g16/l502.exe)
 Integral symmetry usage will be decided dynamically.
 Closed shell SCF:
 Using DIIS extrapolation, IDIIS=  1040.
 NGot=  3221225472 LenX=  3219153746 LenY=  3218144726
 Requested convergence on RMS density matrix=1.00D-08 within 128 cycles.
 Requested convergence on MAX density matrix=1.00D-06.
 Requested convergence on             energy=1.00D-06.
 No special actions if energy rises.
 Fock matrices will be formed incrementally for  20 cycles.
 Integral accuracy reduced to 1.0D-05 until final iterations.

 Cycle   1  Pass 0  IDiag  1:
 FoFJK:  IHMeth= 1 ICntrl=       0 DoSepK=F KAlg= 0 I1Cent=           0 FoldK=F
 IRaf= 560000000 NMat=       1 IRICut=       1 DoRegI=T DoRafI=F ISym2E= 1 IDoP0=0 IntGTp=1.
 FoFCou: FMM=F IPFlag=           0 FMFlag=      100000 FMFlg1=        2000
         NFxFlg=           0 DoJE=F BraDBF=F KetDBF=F FulRan=T
         wScrn=  0.000000 ICntrl=         0 IOpCl=  0 I1Cent=           0 NGrid=           0
         NMat0=    1 NMatS0=      1 NMatT0=    0 NMatD0=    1 NMtDS0=    0 NMtDT0=    0
 Petite list used in FoFCou.
 E= -1693.17852105097    
 DIIS: error= 4.53D-02 at cycle   1 NSaved=   1.
 NSaved= 1 IEnMin= 1 EnMin= -1693.17852105097     IErMin= 1 ErrMin= 4.53D-02
 ErrMax= 4.53D-02  0.00D+00 EMaxC= 1.00D-01 BMatC= 8.97D-01 BMatP= 8.97D-01
 IDIUse=3 WtCom= 5.47D-01 WtEn= 4.53D-01
 Coeff-Com:  0.100D+01
 Coeff-En:   0.100D+01
 Coeff:      0.100D+01
 Gap=     0.063 Goal=   None    Shift=    0.000
 GapD=    0.063 DampG=0.500 DampE=0.500 DampFc=0.2500 IDamp=-1.
 Damping current iteration by 2.50D-01
 RMSDP=1.72D-03 MaxDP=8.40D-02              OVMax= 1.54D-01

 Cycle   2  Pass 0  IDiag  1:
 RMSU=  4.17D-04    CP:  9.82D-01
 E= -1693.48641682154     Delta-E=       -0.307895770568 Rises=F Damp=T
 DIIS: error= 2.65D-02 at cycle   2 NSaved=   2.
 NSaved= 2 IEnMin= 2 EnMin= -1693.48641682154     IErMin= 2 ErrMin= 2.65D-02
 ErrMax= 2.65D-02  0.00D+00 EMaxC= 1.00D-01 BMatC= 2.99D-01 BMatP= 8.97D-01
 IDIUse=3 WtCom= 7.35D-01 WtEn= 2.65D-01
 Coeff-Com: -0.122D+01 0.222D+01
 Coeff-En:   0.000D+00 0.100D+01
 Coeff:     -0.894D+00 0.189D+01
 Gap=     0.061 Goal=   None    Shift=    0.000
 RMSDP=7.13D-04 MaxDP=3.38D-02 DE=-3.08D-01 OVMax= 1.05D-01

 Cycle   3  Pass 0  IDiag  1:
 RMSU=  4.52D-04    CP:  9.57D-01  2.27D+00
 E= -1694.04994808856     Delta-E=       -0.563531267020 Rises=F Damp=F
 DIIS: error= 4.70D-03 at cycle   3 NSaved=   3.
 NSaved= 3 IEnMin= 3 EnMin= -1694.04994808856     IErMin= 3 ErrMin= 4.70D-03
 ErrMax= 4.70D-03  0.00D+00 EMaxC= 1.00D-01 BMatC= 1.18D-02 BMatP= 2.99D-01
 IDIUse=3 WtCom= 9.53D-01 WtEn= 4.70D-02
 Coeff-Com: -0.248D+00 0.513D+00 0.735D+00
 Coeff-En:   0.000D+00 0.000D+00 0.100D+01
 Coeff:     -0.236D+00 0.489D+00 0.747D+00
 Gap=     0.067 Goal=   None    Shift=    0.000
 RMSDP=2.48D-04 MaxDP=1.54D-02 DE=-5.64D-01 OVMax= 1.21D-01

 Cycle   4  Pass 0  IDiag  1:
 RMSU=  2.16D-04    CP:  9.59D-01  2.16D+00  7.51D-01
 E= -1694.04385290279     Delta-E=        0.006095185762 Rises=F Damp=F
 DIIS: error= 7.42D-03 at cycle   4 NSaved=   4.
 NSaved= 4 IEnMin= 3 EnMin= -1694.04994808856     IErMin= 3 ErrMin= 4.70D-03
 ErrMax= 7.42D-03  0.00D+00 EMaxC= 1.00D-01 BMatC= 1.53D-02 BMatP= 1.18D-02
 IDIUse=3 WtCom= 1.04D-01 WtEn= 8.96D-01
 Coeff-Com: -0.368D-01 0.108D+00 0.537D+00 0.392D+00
 Coeff-En:   0.000D+00 0.000D+00 0.581D+00 0.419D+00
 Coeff:     -0.383D-02 0.112D-01 0.576D+00 0.417D+00
 Gap=     0.063 Goal=   None    Shift=    0.000
 RMSDP=1.52D-04 MaxDP=1.08D-02 DE= 6.10D-03 OVMax= 9.86D-02

 Cycle   5  Pass 0  IDiag  1:
 RMSU=  7.75D-05    CP:  9.59D-01  2.15D+00  8.26D-01  4.16D-01
 E= -1694.06140184801     Delta-E=       -0.017548945217 Rises=F Damp=F
 DIIS: error= 2.19D-03 at cycle   5 NSaved=   5.
 NSaved= 5 IEnMin= 5 EnMin= -1694.06140184801     IErMin= 5 ErrMin= 2.19D-03
 ErrMax= 2.19D-03  0.00D+00 EMaxC= 1.00D-01 BMatC= 1.05D-03 BMatP= 1.18D-02
 IDIUse=3 WtCom= 9.78D-01 WtEn= 2.19D-02
 Coeff-Com: -0.159D-01 0.345D-01 0.254D+00 0.232D+00 0.496D+00
 Coeff-En:   0.000D+00 0.000D+00 0.000D+00 0.639D-02 0.994D+00
 Coeff:     -0.155D-01 0.338D-01 0.248D+00 0.227D+00 0.506D+00
 Gap=     0.063 Goal=   None    Shift=    0.000
 RMSDP=4.74D-05 MaxDP=3.59D-03 DE=-1.75D-02 OVMax= 3.22D-02

 Cycle   6  Pass 0  IDiag  1:
 RMSU=  2.73D-05    CP:  9.58D-01  2.18D+00  8.32D-01  4.93D-01  5.71D-01
 E= -1694.06224083603     Delta-E=       -0.000838988022 Rises=F Damp=F
 DIIS: error= 1.19D-03 at cycle   6 NSaved=   6.
 NSaved= 6 IEnMin= 6 EnMin= -1694.06224083603     IErMin= 6 ErrMin= 1.19D-03
 ErrMax= 1.19D-03  0.00D+00 EMaxC= 1.00D-01 BMatC= 2.89D-04 BMatP= 1.05D-03
 IDIUse=3 WtCom= 9.88D-01 WtEn= 1.19D-02
 Coeff-Com: -0.633D-02 0.960D-02 0.108D+00 0.111D+00 0.375D+00 0.403D+00
 Coeff-En:   0.000D+00 0.000D+00 0.000D+00 0.000D+00 0.246D+00 0.754D+00
 Coeff:     -0.625D-02 0.948D-02 0.106D+00 0.109D+00 0.373D+00 0.408D+00
 Gap=     0.063 Goal=   None    Shift=    0.000
 RMSDP=2.21D-05 MaxDP=1.65D-03 DE=-8.39D-04 OVMax= 1.33D-02

 Cycle   7  Pass 0  IDiag  1:
 RMSU=  8.20D-06    CP:  9.58D-01  2.18D+00  8.35D-01  4.74D-01  6.36D-01
                    CP:  2.89D-01
 E= -1694.06257082592     Delta-E=       -0.000329989884 Rises=F Damp=F
 DIIS: error= 3.38D-04 at cycle   7 NSaved=   7.
 NSaved= 7 IEnMin= 7 EnMin= -1694.06257082592     IErMin= 7 ErrMin= 3.38D-04
 ErrMax= 3.38D-04  0.00D+00 EMaxC= 1.00D-01 BMatC= 2.07D-05 BMatP= 2.89D-04
 IDIUse=3 WtCom= 9.97D-01 WtEn= 3.38D-03
 Coeff-Com: -0.224D-02 0.267D-02 0.550D-01 0.575D-01 0.214D+00 0.278D+00
 Coeff-Com:  0.395D+00
 Coeff-En:   0.000D+00 0.000D+00 0.000D+00 0.000D+00 0.000D+00 0.322D-01
 Coeff-En:   0.968D+00
 Coeff:     -0.223D-02 0.266D-02 0.548D-01 0.574D-01 0.214D+00 0.277D+00
 Coeff:      0.397D+00
 Gap=     0.063 Goal=   None    Shift=    0.000
 RMSDP=5.62D-06 MaxDP=3.00D-04 DE=-3.30D-04 OVMax= 2.18D-03

 Initial convergence to 1.0D-05 achieved.  Increase integral accuracy.
 Cycle   8  Pass 1  IDiag  1:
 E= -1694.06215413104     Delta-E=        0.000416694873 Rises=F Damp=F
 DIIS: error= 8.09D-04 at cycle   1 NSaved=   1.
 NSaved= 1 IEnMin= 1 EnMin= -1694.06215413104     IErMin= 1 ErrMin= 8.09D-04
 ErrMax= 8.09D-04  0.00D+00 EMaxC= 1.00D-01 BMatC= 4.68D-05 BMatP= 4.68D-05
 IDIUse=3 WtCom= 9.92D-01 WtEn= 8.09D-03
 Coeff-Com:  0.100D+01
 Coeff-En:   0.100D+01
 Coeff:      0.100D+01
 Gap=     0.063 Goal=   None    Shift=    0.000
 RMSDP=5.62D-06 MaxDP=3.00D-04 DE= 4.17D-04 OVMax= 1.90D-03

 Cycle   9  Pass 1  IDiag  1:
 RMSU=  3.47D-04    CP:  9.97D-01
 E= -1694.06219733504     Delta-E=       -0.000043203996 Rises=F Damp=F
 DIIS: error= 9.11D-05 at cycle   2 NSaved=   2.
 NSaved= 2 IEnMin= 2 EnMin= -1694.06219733504     IErMin= 2 ErrMin= 9.11D-05
 ErrMax= 9.11D-05  0.00D+00 EMaxC= 1.00D-01 BMatC= 2.86D-06 BMatP= 4.68D-05
 IDIUse=1 WtCom= 1.00D+00 WtEn= 0.00D+00
 Coeff-Com:  0.734D-01 0.927D+00
 Coeff:      0.734D-01 0.927D+00
 Gap=     0.063 Goal=   None    Shift=    0.000
 RMSDP=6.68D-06 MaxDP=3.68D-04 DE=-4.32D-05 OVMax= 2.77D-03

 Cycle  10  Pass 1  IDiag  1:
 RMSU=  5.94D-06    CP:  9.97D-01  1.01D+00
 E= -1694.06218313287     Delta-E=        0.000014202172 Rises=F Damp=F
 DIIS: error= 2.48D-04 at cycle   3 NSaved=   3.
 NSaved= 3 IEnMin= 2 EnMin= -1694.06219733504     IErMin= 2 ErrMin= 9.11D-05
 ErrMax= 2.48D-04  0.00D+00 EMaxC= 1.00D-01 BMatC= 1.43D-05 BMatP= 2.86D-06
 IDIUse=3 WtCom= 3.88D-01 WtEn= 6.12D-01
 Coeff-Com: -0.157D-02 0.695D+00 0.307D+00
 Coeff-En:   0.000D+00 0.777D+00 0.223D+00
 Coeff:     -0.611D-03 0.745D+00 0.255D+00
 Gap=     0.063 Goal=   None    Shift=    0.000
 RMSDP=3.75D-06 MaxDP=2.16D-04 DE= 1.42D-05 OVMax= 1.88D-03

 Cycle  11  Pass 1  IDiag  1:
 RMSU=  1.06D-06    CP:  9.97D-01  1.01D+00  4.01D-01
 E= -1694.06220010571     Delta-E=       -0.000016972843 Rises=F Damp=F
 DIIS: error= 3.69D-05 at cycle   4 NSaved=   4.
 NSaved= 4 IEnMin= 4 EnMin= -1694.06220010571     IErMin= 4 ErrMin= 3.69D-05
 ErrMax= 3.69D-05  0.00D+00 EMaxC= 1.00D-01 BMatC= 5.00D-07 BMatP= 2.86D-06
 IDIUse=1 WtCom= 1.00D+00 WtEn= 0.00D+00
 Coeff-Com: -0.382D-02 0.451D+00 0.139D+00 0.413D+00
 Coeff:     -0.382D-02 0.451D+00 0.139D+00 0.413D+00
 Gap=     0.063 Goal=   None    Shift=    0.000
 RMSDP=6.92D-07 MaxDP=3.47D-05 DE=-1.70D-05 OVMax= 1.70D-04

 Cycle  12  Pass 1  IDiag  1:
 RMSU=  3.87D-07    CP:  9.97D-01  1.01D+00  3.16D-01  7.50D-01
 E= -1694.06220061412     Delta-E=       -0.000000508404 Rises=F Damp=F
 DIIS: error= 5.75D-06 at cycle   5 NSaved=   5.
 NSaved= 5 IEnMin= 5 EnMin= -1694.06220061412     IErMin= 5 ErrMin= 5.75D-06
 ErrMax= 5.75D-06  0.00D+00 EMaxC= 1.00D-01 BMatC= 3.95D-09 BMatP= 5.00D-07
 IDIUse=1 WtCom= 1.00D+00 WtEn= 0.00D+00
 Coeff-Com: -0.223D-02 0.254D+00 0.774D-01 0.245D+00 0.426D+00
 Coeff:     -0.223D-02 0.254D+00 0.774D-01 0.245D+00 0.426D+00
 Gap=     0.063 Goal=   None    Shift=    0.000
 RMSDP=9.33D-08 MaxDP=4.04D-06 DE=-5.08D-07 OVMax= 3.70D-05

 Cycle  13  Pass 1  IDiag  1:
 RMSU=  8.55D-08    CP:  9.97D-01  1.01D+00  3.18D-01  7.58D-01  9.12D-01
 E= -1694.06220061859     Delta-E=       -0.000000004470 Rises=F Damp=F
 DIIS: error= 2.17D-06 at cycle   6 NSaved=   6.
 NSaved= 6 IEnMin= 6 EnMin= -1694.06220061859     IErMin= 6 ErrMin= 2.17D-06
 ErrMax= 2.17D-06  0.00D+00 EMaxC= 1.00D-01 BMatC= 6.10D-10 BMatP= 3.95D-09
 IDIUse=1 WtCom= 1.00D+00 WtEn= 0.00D+00
 Coeff-Com: -0.840D-03 0.930D-01 0.279D-01 0.931D-01 0.282D+00 0.505D+00
 Coeff:     -0.840D-03 0.930D-01 0.279D-01 0.931D-01 0.282D+00 0.505D+00
 Gap=     0.063 Goal=   None    Shift=    0.000
 RMSDP=2.79D-08 MaxDP=1.69D-06 DE=-4.47D-09 OVMax= 1.37D-05

 Cycle  14  Pass 1  IDiag  1:
 RMSU=  1.94D-08    CP:  9.97D-01  1.01D+00  3.19D-01  7.54D-01  9.38D-01
                    CP:  8.13D-01
 E= -1694.06220061927     Delta-E=       -0.000000000687 Rises=F Damp=F
 DIIS: error= 2.98D-07 at cycle   7 NSaved=   7.
 NSaved= 7 IEnMin= 7 EnMin= -1694.06220061927     IErMin= 7 ErrMin= 2.98D-07
 ErrMax= 2.98D-07  0.00D+00 EMaxC= 1.00D-01 BMatC= 2.46D-11 BMatP= 6.10D-10
 IDIUse=1 WtCom= 1.00D+00 WtEn= 0.00D+00
 Coeff-Com: -0.187D-03 0.200D-01 0.543D-02 0.222D-01 0.866D-01 0.220D+00
 Coeff-Com:  0.646D+00
 Coeff:     -0.187D-03 0.200D-01 0.543D-02 0.222D-01 0.866D-01 0.220D+00
 Coeff:      0.646D+00
 Gap=     0.063 Goal=   None    Shift=    0.000
 RMSDP=9.26D-09 MaxDP=3.90D-07 DE=-6.87D-10 OVMax= 3.44D-06

 SCF Done:  E(RB3LYP) =  -1694.06220062     A.U. after   14 cycles
            NFock= 14  Conv=0.93D-08     -V/T= 2.0044
 KE= 1.686698598984D+03 PE=-1.325554121825D+04 EE= 5.212279516755D+03
 Leave Link  502 at Wed Sep 27 16:59:17 2023, MaxMem=  3221225472 cpu:            3592.1 elap:              98.6
 (Enter /home/center/opt/aarch64/apps/gaussian16/c01/g16/l601.exe)
 Copying SCF densities to generalized density rwf, IOpCl= 0 IROHF=0.

 **********************************************************************

            Population analysis using the SCF Density.

 **********************************************************************

 Orbital symmetries:
       Occupied  (A") (A') (A') (A") (A") (A') (A") (A') (A') (A')
                 (A") (A') (A") (A') (A") (A') (A") (A') (A") (A')
                 (A") (A') (A") (A') (A") (A') (A') (A") (A') (A")
                 (A") (A') (A") (A') (A') (A") (A') (A") (A') (A')
                 (A") (A') (A") (A') (A') (A") (A') (A") (A') (A')
                 (A") (A") (A') (A') (A") (A') (A') (A") (A') (A')
                 (A") (A") (A") (A") (A') (A') (A') (A') (A") (A")
                 (A') (A") (A") (A") (A') (A') (A") (A') (A') (A')
                 (A') (A") (A") (A') (A") (A") (A') (A") (A') (A')
                 (A") (A') (A') (A") (A") (A') (A") (A') (A") (A')
                 (A") (A') (A') (A') (A') (A') (A") (A") (A") (A')
                 (A') (A') (A") (A") (A") (A") (A") (A') (A") (A')
                 (A') (A') (A') (A") (A") (A') (A') (A") (A") (A")
                 (A') (A") (A') (A') (A") (A') (A") (A') (A') (A')
                 (A") (A") (A") (A") (A') (A')
       Virtual   (A') (A') (A") (A") (A") (A") (A') (A') (A') (A")
                 (A') (A') (A") (A') (A') (A") (A') (A') (A") (A")
                 (A') (A') (A") (A") (A') (A") (A') (A") (A') (A")
                 (A") (A') (A") (A') (A') (A") (A") (A') (A") (A')
                 (A') (A') (A") (A') (A") (A') (A") (A') (A") (A")
                 (A') (A') (A') (A') (A') (A') (A') (A") (A") (A")
                 (A') (A") (A") (A") (A') (A') (A") (A") (A') (A")
                 (A') (A') (A") (A') (A') (A") (A") (A') (A") (A')
                 (A") (A') (A') (A') (A") (A') (A') (A") (A') (A")
                 (A") (A") (A') (A') (A') (A') (A") (A') (A") (A')
                 (A") (A") (A") (A') (A") (A') (A") (A') (A") (A")
                 (A') (A') (A") (A') (A") (A') (A") (A') (A') (A')
                 (A") (A") (A') (A') (A') (A') (A') (A") (A') (A")
                 (A") (A') (A") (A') (A') (A") (A') (A") (A") (A')
                 (A') (A") (A') (A') (A") (A') (A") (A") (A') (A")
                 (A") (A') (A") (A') (A") (A') (A') (A") (A") (A')
                 (A') (A") (A') (A") (A') (A") (A") (A") (A') (A')
                 (A') (A') (A') (A") (A") (A') (A") (A') (A") (A")
                 (A') (A") (A') (A") (A') (A') (A") (A') (A") (A")
                 (A') (A") (A') (A') (A") (A') (A") (A') (A") (A')
                 (A') (A") (A') (A") (A') (A') (A") (A') (A") (A')
                 (A") (A') (A") (A") (A') (A') (A") (A') (A") (A")
                 (A') (A") (A") (A') (A") (A') (A') (A") (A') (A')
                 (A") (A') (A") (A') (A') (A") (A') (A") (A") (A')
                 (A') (A") (A') (A") (A') (A") (A') (A") (A') (A")
                 (A') (A") (A') (A") (A") (A') (A') (A") (A') (A")
                 (A") (A') (A') (A") (A') (A") (A') (A") (A') (A")
                 (A") (A') (A") (A') (A") (A') (A') (A") (A') (A")
                 (A") (A') (A") (A') (A") (A') (A") (A') (A') (A")
                 (A") (A') (A') (A") (A') (A') (A') (A") (A") (A")
                 (A") (A') (A") (A') (A') (A') (A") (A") (A') (A')
                 (A") (A') (A') (A") (A") (A") (A') (A") (A') (A")
                 (A') (A') (A') (A") (A") (A') (A") (A') (A") (A")
                 (A') (A") (A') (A") (A') (A') (A") (A") (A') (A')
                 (A") (A') (A') (A') (A") (A") (A') (A') (A") (A")
                 (A') (A") (A') (A") (A') (A') (A') (A') (A") (A')
                 (A') (A") (A') (A") (A') (A") (A") (A") (A') (A")
                 (A") (A") (A') (A") (A') (A") (A') (A") (A") (A')
                 (A') (A') (A") (A') (A') (A") (A') (A") (A') (A')
                 (A') (A") (A') (A") (A") (A') (A") (A') (A') (A")
                 (A") (A') (A") (A') (A") (A') (A") (A') (A') (A")
                 (A') (A') (A") (A') (A') (A") (A') (A") (A') (A")
                 (A') (A") (A') (A") (A') (A") (A') (A') (A") (A")
                 (A') (A") (A') (A") (A") (A') (A") (A') (A") (A')
                 (A") (A') (A") (A") (A') (A") (A') (A") (A') (A')
                 (A") (A') (A") (A") (A') (A') (A") (A') (A") (A')
                 (A") (A') (A") (A') (A") (A') (A") (A') (A') (A')
                 (A") (A") (A') (A") (A") (A') (A") (A') (A") (A')
                 (A') (A") (A') (A") (A') (A") (A') (A") (A") (A')
                 (A") (A") (A") (A') (A") (A") (A") (A') (A') (A")
                 (A') (A") (A') (A') (A') (A") (A') (A') (A") (A')
                 (A") (A') (A") (A') (A") (A') (A') (A") (A") (A')
                 (A") (A") (A") (A') (A') (A') (A") (A') (A") (A")
                 (A') (A") (A') (A') (A") (A") (A") (A') (A') (A')
                 (A") (A') (A") (A') (A') (A") (A") (A") (A') (A")
                 (A') (A") (A") (A") (A') (A') (A') (A") (A') (A')
                 (A") (A') (A') (A") (A") (A") (A') (A") (A') (A')
                 (A') (A") (A") (A') (A') (A') (A") (A') (A') (A")
                 (A') (A") (A") (A') (A') (A") (A") (A') (A') (A")
                 (A") (A') (A") (A") (A") (A') (A') (A") (A') (A')
                 (A') (A') (A") (A') (A') (A") (A') (A") (A") (A')
                 (A") (A') (A") (A') (A") (A') (A') (A') (A") (A')
                 (A") (A') (A') (A") (A') (A") (A') (A") (A") (A")
                 (A') (A") (A') (A") (A') (A") (A') (A') (A') (A")
                 (A") (A') (A') (A") (A') (A") (A") (A') (A") (A')
                 (A') (A") (A') (A") (A') (A") (A') (A') (A') (A")
                 (A") (A') (A") (A") (A') (A") (A') (A') (A") (A')
                 (A') (A") (A") (A') (A") (A') (A") (A") (A') (A')
                 (A') (A') (A") (A") (A') (A') (A") (A") (A") (A")
                 (A') (A') (A") (A') (A') (A') (A") (A") (A") (A')
                 (A") (A') (A') (A") (A') (A") (A') (A") (A") (A')
                 (A") (A") (A') (A') (A") (A') (A') (A") (A') (A")
                 (A') (A") (A') (A') (A') (A") (A") (A') (A') (A")
                 (A') (A") (A') (A") (A") (A') (A') (A") (A") (A')
                 (A') (A") (A') (A") (A') (A') (A") (A') (A') (A")
                 (A') (A') (A") (A") (A') (A") (A') (A') (A") (A")
                 (A") (A') (A") (A") (A') (A') (A") (A") (A') (A")
                 (A') (A') (A") (A") (A') (A') (A') (A') (A") (A")
                 (A") (A") (A') (A') (A") (A') (A") (A') (A') (A')
                 (A") (A") (A") (A") (A') (A') (A") (A') (A') (A')
                 (A") (A") (A') (A') (A") (A") (A') (A') (A") (A')
                 (A') (A") (A') (A")
 The electronic state is 1-A'.
 Alpha  occ. eigenvalues --  -10.19723 -10.19723 -10.19680 -10.19679 -10.19613
 Alpha  occ. eigenvalues --  -10.19613 -10.19560 -10.19560 -10.18748 -10.18721
 Alpha  occ. eigenvalues --  -10.18683 -10.18683 -10.18671 -10.18671 -10.18566
 Alpha  occ. eigenvalues --  -10.18566 -10.18525 -10.18525 -10.18496 -10.18496
 Alpha  occ. eigenvalues --  -10.18438 -10.18438 -10.17951 -10.17951 -10.17907
 Alpha  occ. eigenvalues --  -10.17907 -10.17848 -10.17848 -10.17769 -10.17769
 Alpha  occ. eigenvalues --  -10.17047 -10.17047 -10.16970 -10.16970 -10.16951
 Alpha  occ. eigenvalues --  -10.16948 -10.16947 -10.16860 -10.16860 -10.16825
 Alpha  occ. eigenvalues --  -10.16786 -10.16785 -10.16705 -10.16705  -0.90158
 Alpha  occ. eigenvalues --   -0.88651  -0.88349  -0.86899  -0.86320  -0.84596
 Alpha  occ. eigenvalues --   -0.83176  -0.81470  -0.80573  -0.79274  -0.79039
 Alpha  occ. eigenvalues --   -0.78808  -0.77580  -0.77326  -0.76705  -0.75014
 Alpha  occ. eigenvalues --   -0.75011  -0.73612  -0.73307  -0.71930  -0.69917
 Alpha  occ. eigenvalues --   -0.68227  -0.68075  -0.66391  -0.63450  -0.63080
 Alpha  occ. eigenvalues --   -0.61814  -0.61764  -0.61430  -0.60651  -0.60090
 Alpha  occ. eigenvalues --   -0.59987  -0.58960  -0.58384  -0.58321  -0.56741
 Alpha  occ. eigenvalues --   -0.53420  -0.53259  -0.52975  -0.51767  -0.51596
 Alpha  occ. eigenvalues --   -0.51352  -0.50319  -0.49217  -0.48674  -0.47816
 Alpha  occ. eigenvalues --   -0.47597  -0.46767  -0.46229  -0.46217  -0.46196
 Alpha  occ. eigenvalues --   -0.45425  -0.44787  -0.44629  -0.44520  -0.43835
 Alpha  occ. eigenvalues --   -0.43215  -0.43008  -0.42480  -0.42334  -0.42250
 Alpha  occ. eigenvalues --   -0.41889  -0.41644  -0.41436  -0.41093  -0.40818
 Alpha  occ. eigenvalues --   -0.40591  -0.40431  -0.40273  -0.39708  -0.39442
 Alpha  occ. eigenvalues --   -0.38861  -0.38651  -0.37521  -0.37293  -0.37011
 Alpha  occ. eigenvalues --   -0.36211  -0.35819  -0.35437  -0.34814  -0.34463
 Alpha  occ. eigenvalues --   -0.34364  -0.33737  -0.33535  -0.33130  -0.32732
 Alpha  occ. eigenvalues --   -0.32683  -0.32026  -0.31629  -0.30595  -0.30389
 Alpha  occ. eigenvalues --   -0.29156  -0.28673  -0.27512  -0.27393  -0.25643
 Alpha  occ. eigenvalues --   -0.25234  -0.23451  -0.23362  -0.21603  -0.18659
 Alpha  occ. eigenvalues --   -0.16856
 Alpha virt. eigenvalues --   -0.10546  -0.08794  -0.05240  -0.03571  -0.03526
 Alpha virt. eigenvalues --   -0.01822  -0.00937   0.00785   0.01304   0.01518
 Alpha virt. eigenvalues --    0.02225   0.02981   0.03272   0.03796   0.03985
 Alpha virt. eigenvalues --    0.03985   0.04769   0.05541   0.05819   0.05959
 Alpha virt. eigenvalues --    0.06112   0.06754   0.07282   0.07550   0.07816
 Alpha virt. eigenvalues --    0.08167   0.08744   0.09216   0.09598   0.09644
 Alpha virt. eigenvalues --    0.10323   0.10883   0.11067   0.11119   0.11526
 Alpha virt. eigenvalues --    0.12446   0.12921   0.13331   0.13409   0.13763
 Alpha virt. eigenvalues --    0.14265   0.15036   0.15958   0.16002   0.17289
 Alpha virt. eigenvalues --    0.17801   0.18249   0.18339   0.18956   0.19718
 Alpha virt. eigenvalues --    0.19829   0.20289   0.22193   0.22223   0.23733
 Alpha virt. eigenvalues --    0.23860   0.24087   0.24263   0.24958   0.25216
 Alpha virt. eigenvalues --    0.25367   0.26308   0.26863   0.26938   0.27156
 Alpha virt. eigenvalues --    0.27573   0.27714   0.28350   0.28674   0.28764
 Alpha virt. eigenvalues --    0.29096   0.29448   0.29524   0.30043   0.30239
 Alpha virt. eigenvalues --    0.30292   0.30597   0.31292   0.31824   0.32106
 Alpha virt. eigenvalues --    0.32594   0.33813   0.34132   0.34526   0.34698
 Alpha virt. eigenvalues --    0.34875   0.35166   0.35341   0.35525   0.35998
 Alpha virt. eigenvalues --    0.36541   0.37059   0.37610   0.37748   0.38029
 Alpha virt. eigenvalues --    0.38564   0.38705   0.38767   0.38925   0.38966
 Alpha virt. eigenvalues --    0.39137   0.39388   0.39712   0.39741   0.39961
 Alpha virt. eigenvalues --    0.40070   0.40234   0.40447   0.41253   0.41341
 Alpha virt. eigenvalues --    0.41805   0.42175   0.42347   0.42501   0.42567
 Alpha virt. eigenvalues --    0.42834   0.43110   0.43119   0.43309   0.43755
 Alpha virt. eigenvalues --    0.43994   0.44369   0.44599   0.44732   0.45044
 Alpha virt. eigenvalues --    0.45218   0.45305   0.45511   0.45723   0.45860
 Alpha virt. eigenvalues --    0.45965   0.46021   0.46104   0.46613   0.46825
 Alpha virt. eigenvalues --    0.47004   0.47181   0.47484   0.48015   0.48501
 Alpha virt. eigenvalues --    0.48934   0.49166   0.49269   0.49511   0.49740
 Alpha virt. eigenvalues --    0.50329   0.50365   0.50483   0.50534   0.50865
 Alpha virt. eigenvalues --    0.51106   0.51725   0.51733   0.51982   0.52385
 Alpha virt. eigenvalues --    0.53075   0.53770   0.53893   0.54440   0.54467
 Alpha virt. eigenvalues --    0.55193   0.56109   0.56793   0.57319   0.57406
 Alpha virt. eigenvalues --    0.57522   0.58173   0.58336   0.58390   0.58494
 Alpha virt. eigenvalues --    0.58705   0.59251   0.59756   0.59777   0.60464
 Alpha virt. eigenvalues --    0.60583   0.61192   0.61346   0.61595   0.61771
 Alpha virt. eigenvalues --    0.61943   0.61973   0.62238   0.62774   0.62840
 Alpha virt. eigenvalues --    0.63236   0.63548   0.63660   0.63823   0.64138
 Alpha virt. eigenvalues --    0.64235   0.64640   0.64721   0.65850   0.66126
 Alpha virt. eigenvalues --    0.66445   0.66714   0.66816   0.67072   0.67292
 Alpha virt. eigenvalues --    0.67923   0.67979   0.69755   0.69993   0.70846
 Alpha virt. eigenvalues --    0.71082   0.71538   0.71633   0.71901   0.72522
 Alpha virt. eigenvalues --    0.72960   0.72980   0.73469   0.73947   0.74173
 Alpha virt. eigenvalues --    0.74563   0.74977   0.76230   0.76301   0.76501
 Alpha virt. eigenvalues --    0.76549   0.77136   0.77972   0.77994   0.78362
 Alpha virt. eigenvalues --    0.78585   0.79037   0.79640   0.79762   0.80497
 Alpha virt. eigenvalues --    0.80520   0.80903   0.81939   0.81955   0.82175
 Alpha virt. eigenvalues --    0.82601   0.83198   0.83545   0.84043   0.84082
 Alpha virt. eigenvalues --    0.84964   0.85092   0.85660   0.85849   0.86314
 Alpha virt. eigenvalues --    0.86874   0.87529   0.87539   0.88795   0.89008
 Alpha virt. eigenvalues --    0.89973   0.90275   0.90588   0.90867   0.91820
 Alpha virt. eigenvalues --    0.92803   0.93077   0.93496   0.94789   0.94844
 Alpha virt. eigenvalues --    0.95229   0.95236   0.95661   0.96674   0.96904
 Alpha virt. eigenvalues --    0.97453   0.97993   0.98197   0.98253   0.99011
 Alpha virt. eigenvalues --    0.99510   0.99919   1.00403   1.01381   1.01970
 Alpha virt. eigenvalues --    1.02016   1.02337   1.02784   1.02998   1.03060
 Alpha virt. eigenvalues --    1.03342   1.03601   1.04506   1.04666   1.05005
 Alpha virt. eigenvalues --    1.05182   1.05343   1.05656   1.06267   1.06407
 Alpha virt. eigenvalues --    1.06544   1.06622   1.06954   1.07122   1.07380
 Alpha virt. eigenvalues --    1.07548   1.08414   1.08456   1.09097   1.09448
 Alpha virt. eigenvalues --    1.09564   1.10377   1.11071   1.11557   1.12027
 Alpha virt. eigenvalues --    1.12176   1.12315   1.12753   1.12910   1.13280
 Alpha virt. eigenvalues --    1.13805   1.13871   1.14293   1.14936   1.15357
 Alpha virt. eigenvalues --    1.15899   1.16138   1.16740   1.17133   1.17761
 Alpha virt. eigenvalues --    1.18573   1.18726   1.19795   1.19800   1.21538
 Alpha virt. eigenvalues --    1.22423   1.22900   1.23130   1.23480   1.25027
 Alpha virt. eigenvalues --    1.25267   1.26337   1.27519   1.28018   1.30024
 Alpha virt. eigenvalues --    1.30407   1.30864   1.31982   1.32165   1.33160
 Alpha virt. eigenvalues --    1.33857   1.35027   1.35767   1.36796   1.36845
 Alpha virt. eigenvalues --    1.38895   1.39333   1.39746   1.39927   1.40694
 Alpha virt. eigenvalues --    1.40907   1.41767   1.41858   1.42120   1.42185
 Alpha virt. eigenvalues --    1.42718   1.43603   1.44407   1.44568   1.44696
 Alpha virt. eigenvalues --    1.45685   1.45993   1.46704   1.47041   1.47561
 Alpha virt. eigenvalues --    1.47814   1.48017   1.48737   1.48899   1.48986
 Alpha virt. eigenvalues --    1.49193   1.49864   1.49954   1.50423   1.50782
 Alpha virt. eigenvalues --    1.50825   1.51618   1.51911   1.52379   1.52703
 Alpha virt. eigenvalues --    1.52891   1.53780   1.53780   1.54284   1.54793
 Alpha virt. eigenvalues --    1.55073   1.55416   1.55476   1.55565   1.56120
 Alpha virt. eigenvalues --    1.56185   1.57797   1.58195   1.58428   1.59243
 Alpha virt. eigenvalues --    1.59301   1.60079   1.60347   1.61148   1.61451
 Alpha virt. eigenvalues --    1.61953   1.62372   1.62784   1.62788   1.64917
 Alpha virt. eigenvalues --    1.65468   1.65930   1.65954   1.66747   1.67830
 Alpha virt. eigenvalues --    1.68817   1.69052   1.69923   1.70738   1.70852
 Alpha virt. eigenvalues --    1.71035   1.71664   1.71730   1.72109   1.72532
 Alpha virt. eigenvalues --    1.73595   1.73601   1.73773   1.73949   1.74035
 Alpha virt. eigenvalues --    1.74229   1.74791   1.75158   1.75908   1.76906
 Alpha virt. eigenvalues --    1.77110   1.78501   1.78682   1.79123   1.80008
 Alpha virt. eigenvalues --    1.80073   1.80107   1.80932   1.81424   1.82129
 Alpha virt. eigenvalues --    1.82304   1.82738   1.82948   1.82990   1.83101
 Alpha virt. eigenvalues --    1.84177   1.84292   1.84424   1.84901   1.85219
 Alpha virt. eigenvalues --    1.85838   1.86666   1.87033   1.87455   1.87569
 Alpha virt. eigenvalues --    1.87757   1.87983   1.88501   1.88680   1.88867
 Alpha virt. eigenvalues --    1.89212   1.89495   1.89654   1.90757   1.91265
 Alpha virt. eigenvalues --    1.91418   1.91436   1.91533   1.92363   1.92760
 Alpha virt. eigenvalues --    1.92826   1.93235   1.93586   1.93717   1.94050
 Alpha virt. eigenvalues --    1.94132   1.94626   1.94813   1.95322   1.95875
 Alpha virt. eigenvalues --    1.96340   1.96446   1.96599   1.97442   1.97839
 Alpha virt. eigenvalues --    1.99467   1.99487   2.00661   2.00871   2.01378
 Alpha virt. eigenvalues --    2.01716   2.01736   2.02616   2.03021   2.04289
 Alpha virt. eigenvalues --    2.05695   2.07357   2.07695   2.08445   2.09187
 Alpha virt. eigenvalues --    2.09214   2.10434   2.10586   2.11379   2.11630
 Alpha virt. eigenvalues --    2.12068   2.12970   2.13487   2.14100   2.15191
 Alpha virt. eigenvalues --    2.15376   2.16515   2.16534   2.17016   2.18160
 Alpha virt. eigenvalues --    2.18689   2.19377   2.20218   2.22035   2.22476
 Alpha virt. eigenvalues --    2.22513   2.23374   2.23439   2.23491   2.23874
 Alpha virt. eigenvalues --    2.24464   2.25488   2.25936   2.26565   2.26894
 Alpha virt. eigenvalues --    2.27263   2.27471   2.27795   2.28002   2.28397
 Alpha virt. eigenvalues --    2.28630   2.29956   2.30394   2.31130   2.32935
 Alpha virt. eigenvalues --    2.34731   2.35063   2.35645   2.37063   2.38661
 Alpha virt. eigenvalues --    2.38669   2.40119   2.40318   2.41265   2.42099
 Alpha virt. eigenvalues --    2.42562   2.42807   2.44695   2.45063   2.45086
 Alpha virt. eigenvalues --    2.45253   2.45591   2.46900   2.47244   2.49469
 Alpha virt. eigenvalues --    2.51325   2.52965   2.53180   2.53610   2.54189
 Alpha virt. eigenvalues --    2.54938   2.55336   2.56656   2.57046   2.57502
 Alpha virt. eigenvalues --    2.58192   2.59121   2.59240   2.59639   2.59761
 Alpha virt. eigenvalues --    2.60438   2.60877   2.60987   2.61124   2.61416
 Alpha virt. eigenvalues --    2.61735   2.61927   2.62190   2.62659   2.63148
 Alpha virt. eigenvalues --    2.63345   2.64000   2.64447   2.64821   2.64928
 Alpha virt. eigenvalues --    2.65817   2.66154   2.66376   2.66571   2.66651
 Alpha virt. eigenvalues --    2.66843   2.68017   2.68095   2.68436   2.68722
 Alpha virt. eigenvalues --    2.68965   2.69019   2.69362   2.69688   2.69885
 Alpha virt. eigenvalues --    2.70072   2.70118   2.70570   2.71282   2.71522
 Alpha virt. eigenvalues --    2.72466   2.72571   2.72904   2.72931   2.73583
 Alpha virt. eigenvalues --    2.73618   2.73900   2.74224   2.74715   2.75122
 Alpha virt. eigenvalues --    2.75392   2.75929   2.77085   2.77170   2.77467
 Alpha virt. eigenvalues --    2.77472   2.77826   2.78073   2.78542   2.79463
 Alpha virt. eigenvalues --    2.79724   2.79853   2.80453   2.80879   2.82090
 Alpha virt. eigenvalues --    2.82861   2.83361   2.83962   2.84744   2.85144
 Alpha virt. eigenvalues --    2.86193   2.86631   2.87152   2.87507   2.88283
 Alpha virt. eigenvalues --    2.88546   2.89752   2.90377   2.90894   2.91946
 Alpha virt. eigenvalues --    2.93107   2.93314   2.93604   2.94116   2.94550
 Alpha virt. eigenvalues --    2.96480   2.96757   2.97318   2.98292   2.98486
 Alpha virt. eigenvalues --    2.98595   2.99144   3.00664   3.02528   3.02721
 Alpha virt. eigenvalues --    3.05236   3.05846   3.06885   3.08128   3.08395
 Alpha virt. eigenvalues --    3.09141   3.09409   3.15630   3.16012   3.16826
 Alpha virt. eigenvalues --    3.17268   3.17631   3.18127   3.19282   3.20823
 Alpha virt. eigenvalues --    3.21276   3.21586   3.24100   3.25027   3.29892
 Alpha virt. eigenvalues --    3.30381   3.30490   3.30843   3.31426   3.33094
 Alpha virt. eigenvalues --    3.35085   3.35699   3.36473   3.36808   3.37257
 Alpha virt. eigenvalues --    3.37471   3.37599   3.38732   3.39250   3.39717
 Alpha virt. eigenvalues --    3.41132   3.41159   3.42178   3.42915   3.44808
 Alpha virt. eigenvalues --    3.45005   3.46131   3.46726   3.49286   3.49366
 Alpha virt. eigenvalues --    3.50474   3.51474   3.52182   3.52732   3.52741
 Alpha virt. eigenvalues --    3.55557   3.57172   3.58460   3.58852   3.60588
 Alpha virt. eigenvalues --    3.61746   3.62528   3.63050   3.64032   3.64433
 Alpha virt. eigenvalues --    3.64649   3.66566   3.66971   3.68106   3.68352
 Alpha virt. eigenvalues --    3.68808   3.70564   3.71971   3.72046   4.00061
 Alpha virt. eigenvalues --    4.00095   4.01266   4.01600   4.02049   4.02090
 Alpha virt. eigenvalues --    4.03080   4.03395   4.15604   4.16160   4.17382
 Alpha virt. eigenvalues --    4.18686   4.19267   4.20694   4.20730   4.21846
 Alpha virt. eigenvalues --    4.22027   4.23315   4.24109   4.25917   4.26105
 Alpha virt. eigenvalues --    4.29213   4.38267   4.40886   4.61862   4.64389
 Alpha virt. eigenvalues --    4.78446   4.79099   4.79867   4.80907   4.81235
 Alpha virt. eigenvalues --    4.82016   4.82412   4.82708   4.84880   4.85096
 Alpha virt. eigenvalues --   23.40219  23.44989  23.55262  23.60820  23.69743
 Alpha virt. eigenvalues --   23.74580  23.77407  23.79196  23.80934  23.81380
 Alpha virt. eigenvalues --   23.82840  23.85116  23.85790  23.87704  23.88682
 Alpha virt. eigenvalues --   23.89771  23.90827  23.91373  23.92229  23.94612
 Alpha virt. eigenvalues --   23.96812  23.98660  23.98720  23.99774  24.08836
 Alpha virt. eigenvalues --   24.09424  24.10143  24.10371  24.11022  24.11579
 Alpha virt. eigenvalues --   24.11632  24.13082  24.13564  24.13657  24.15043
 Alpha virt. eigenvalues --   24.15175  24.15213  24.15734  24.16737  24.16769
 Alpha virt. eigenvalues --   24.19801  24.19845  24.21569  24.21636
          Condensed to atoms (all electrons):
 Mulliken charges:
               1
     1  C   -0.061221
     2  C   -0.067336
     3  C   -0.047695
     4  C   -0.073972
     5  C   -0.091093
     6  C   -0.094803
     7  C    0.000300
     8  C   -0.059803
     9  C   -0.039395
    10  C   -0.058359
    11  H    0.085371
    12  H    0.078083
    13  H    0.076686
    14  H    0.085134
    15  H    0.098486
    16  H    0.097921
    17  C   -0.004385
    18  C   -0.059803
    19  C   -0.043871
    20  C   -0.058359
    21  H    0.076778
    22  H    0.075413
    23  C    0.000300
    24  C   -0.061221
    25  C   -0.039395
    26  C   -0.067336
    27  H    0.078083
    28  H    0.076686
    29  C   -0.047695
    30  C   -0.091093
    31  C   -0.073972
    32  C   -0.094803
    33  H    0.085371
    34  H    0.097921
    35  H    0.098486
    36  H    0.085134
    37  C   -0.020883
    38  C   -0.130408
    39  C   -0.063968
    40  C   -0.040768
    41  C   -0.086079
    42  C   -0.125577
    43  C   -0.031754
    44  C   -0.008914
    45  C    0.001140
    46  C   -0.136773
    47  H    0.078260
    48  H    0.069910
    49  H    0.128993
    50  H    0.132820
    51  H    0.084787
    52  H    0.090722
    53  C   -0.035995
    54  C   -0.008914
    55  C   -0.002832
    56  C   -0.136773
    57  H    0.068521
    58  H    0.126746
    59  C   -0.031754
    60  C   -0.020883
    61  C    0.001140
    62  C   -0.130408
    63  H    0.069910
    64  H    0.128993
    65  C   -0.063968
    66  C   -0.086079
    67  C   -0.040768
    68  C   -0.125577
    69  H    0.078260
    70  H    0.090722
    71  H    0.084787
    72  H    0.132820
 Sum of Mulliken charges =   0.00000
 Mulliken charges with hydrogens summed into heavy atoms:
               1
     1  C   -0.061221
     2  C   -0.067336
     3  C    0.037676
     4  C    0.011162
     5  C    0.006828
     6  C    0.003683
     7  C    0.078382
     8  C   -0.059803
     9  C    0.037291
    10  C   -0.058359
    17  C    0.072393
    18  C   -0.059803
    19  C    0.031542
    20  C   -0.058359
    23  C    0.078382
    24  C   -0.061221
    25  C    0.037291
    26  C   -0.067336
    29  C    0.037676
    30  C    0.006828
    31  C    0.011162
    32  C    0.003683
    37  C   -0.020883
    38  C   -0.130408
    39  C    0.014292
    40  C    0.092052
    41  C    0.004643
    42  C   -0.040790
    43  C    0.038156
    44  C   -0.008914
    45  C    0.130133
    46  C   -0.136773
    53  C    0.032525
    54  C   -0.008914
    55  C    0.123914
    56  C   -0.136773
    59  C    0.038156
    60  C   -0.020883
    61  C    0.130133
    62  C   -0.130408
    65  C    0.014292
    66  C    0.004643
    67  C    0.092052
    68  C   -0.040790
         Mulliken charges condensed to fragments:
      1     -0.039457
      2      0.039457
 Electronic spatial extent (au):  <R**2>=          25523.0762
 Charge=              0.0000 electrons
 Dipole moment (field-independent basis, Debye):
    X=              0.3336    Y=             -1.6681    Z=              0.0000  Tot=              1.7012
 Quadrupole moment (field-independent basis, Debye-Ang):
   XX=           -245.6254   YY=           -249.6569   ZZ=           -219.9637
   XY=             -0.2104   XZ=              0.0000   YZ=              0.0000
 Traceless Quadrupole moment (field-independent basis, Debye-Ang):
   XX=             -7.2101   YY=            -11.2416   ZZ=             18.4516
   XY=             -0.2104   XZ=              0.0000   YZ=              0.0000
 Octapole moment (field-independent basis, Debye-Ang**2):
  XXX=             22.4390  YYY=            169.6799  ZZZ=              0.0000  XYY=             -4.0210
  XXY=            -71.1019  XXZ=              0.0000  XZZ=              5.8678  YZZ=            -37.4364
  YYZ=              0.0000  XYZ=              0.0000
 Hexadecapole moment (field-independent basis, Debye-Ang**3):
 XXXX=          -1360.8256 YYYY=         -11082.8398 ZZZZ=         -21050.3487 XXXY=            500.3596
 XXXZ=              0.0000 YYYX=            505.4777 YYYZ=              0.0000 ZZZX=              0.0000
 ZZZY=              0.0000 XXYY=          -2145.8368 XXZZ=          -4172.6386 YYZZ=          -5651.3431
 XXYZ=              0.0000 YYXZ=              0.0000 ZZXY=            147.3429
 N-N= 4.662500901892D+03 E-N=-1.325554123854D+04  KE= 1.686698598984D+03
 Symmetry A'   KE= 9.134332956524D+02
 Symmetry A"   KE= 7.732653033320D+02
 No NMR shielding tensors so no spin-rotation constants.
 Leave Link  601 at Wed Sep 27 16:59:21 2023, MaxMem=  3221225472 cpu:              52.8 elap:               1.5
 (Enter /home/center/opt/aarch64/apps/gaussian16/c01/g16/l122.exe)
 CPIOFr:  IOpCl= 0 IRwI=-1 IRwCP=  731 ICalc= -1 LCPTot=     1419224 Len1MO=     3708034 IndFrg=     1419224
 CPIOFr:  IOpCl= 0 IRwI=-1 IRwCP=  731 ICalc=  0 LCPTot=     1419224 Len1MO=     3708034 IndFrg=     5127258
 Counterpoise: doing calculation for fragment   1 using the basis set of the full-system, NewBq=T
 Leave Link  122 at Wed Sep 27 16:59:23 2023, MaxMem=  3221225472 cpu:               8.7 elap:               0.3
 (Enter /home/center/opt/aarch64/apps/gaussian16/c01/g16/l301.exe)
 Basis read from rwf:  (5D, 7F)
 No pseudopotential information found on rwf file.
 There are   528 symmetry adapted cartesian basis functions of A'  symmetry.
 There are   476 symmetry adapted cartesian basis functions of A"  symmetry.
 There are   504 symmetry adapted basis functions of A'  symmetry.
 There are   456 symmetry adapted basis functions of A"  symmetry.
   960 basis functions,  1632 primitive gaussians,  1004 cartesian basis functions
    73 alpha electrons       73 beta electrons
       nuclear repulsion energy      1494.3575060288 Hartrees.
 IExCor=  402 DFT=T Ex+Corr=B3LYP ExCW=0 ScaHFX=  0.200000
 ScaDFX=  0.800000  0.720000  1.000000  0.810000 ScalE2=  1.000000  1.000000
 IRadAn=      5 IRanWt=     -1 IRanGd=            0 ICorTp=0 IEmpDi=131
 NAtoms=   72 NActive=   72 NUniq=   40 SFac= 3.24D+00 NAtFMM=   60 NAOKFM=T Big=F
 Integral buffers will be    131072 words long.
 Raffenetti 2 integral format.
 Two-electron integral symmetry is turned on.
 R6Disp:  Grimme-D3 Dispersion energy=       -0.0303938888 Hartrees.
 Nuclear repulsion after empirical dispersion term =     1494.3271121400 Hartrees.
 No density basis found on file    718.
 Leave Link  301 at Wed Sep 27 16:59:26 2023, MaxMem=  3221225472 cpu:               5.6 elap:               0.2
 (Enter /home/center/opt/aarch64/apps/gaussian16/c01/g16/l302.exe)
 NPDir=0 NMtPBC=     1 NCelOv=     1 NCel=       1 NClECP=     1 NCelD=      1
         NCelK=      1 NCelE2=     1 NClLst=     1 CellRange=     0.0.
 One-electron integrals computed using PRISM.
 One-electron integral symmetry used in STVInt
 NBasis=   960 RedAO= T EigKep=  3.76D-05  NBF=   504   456
 NBsUse=   960 1.00D-06 EigRej= -1.00D+00 NBFU=   504   456
 Precomputing XC quadrature grid using
 IXCGrd= 4 IRadAn=           5 IRanWt=          -1 IRanGd=           0 AccXCQ= 0.00D+00.
 Generated NRdTot=       0 NPtTot=           0 NUsed=           0 NTot=          32
 NSgBfM=   991   991   991   991   991 MxSgAt=    72 MxSgA2=    72.
 Leave Link  302 at Wed Sep 27 16:59:30 2023, MaxMem=  3221225472 cpu:              59.4 elap:               1.6
 (Enter /home/center/opt/aarch64/apps/gaussian16/c01/g16/l303.exe)
 DipDrv:  MaxL=1.
 Leave Link  303 at Wed Sep 27 16:59:32 2023, MaxMem=  3221225472 cpu:              13.4 elap:               0.4
 (Enter /home/center/opt/aarch64/apps/gaussian16/c01/g16/l401.exe)
 ExpMin= 1.03D-01 ExpMax= 4.56D+03 ExpMxC= 6.82D+02 IAcc=3 IRadAn=         5 AccDes= 0.00D+00
 Harris functional with IExCor=  402 and IRadAn=       5 diagonalized for initial guess.
 HarFok:  IExCor=  402 AccDes= 0.00D+00 IRadAn=         5 IDoV= 1 UseB2=F ITyADJ=14
 ICtDFT=  3500011 ScaDFX=  1.000000  1.000000  1.000000  1.000000
 FoFCou: FMM=F IPFlag=           0 FMFlag=      100000 FMFlg1=        2000
         NFxFlg=           0 DoJE=T BraDBF=F KetDBF=T FulRan=T
         wScrn=  0.000000 ICntrl=       500 IOpCl=  0 I1Cent=   200000004 NGrid=           0
         NMat0=    1 NMatS0=      1 NMatT0=    0 NMatD0=    1 NMtDS0=    0 NMtDT0=    0
 Petite list used in FoFCou.
 Harris En= -847.067013867814    
 JPrj=0 DoOrth=F DoCkMO=F.
 Initial guess orbital symmetries:
       Occupied  (A") (A') (A') (A") (A") (A') (A") (A') (A') (A")
                 (A") (A') (A') (A') (A") (A') (A") (A') (A") (A')
                 (A') (A") (A') (A") (A') (A") (A') (A') (A") (A')
                 (A") (A") (A') (A') (A") (A") (A') (A") (A') (A')
                 (A') (A") (A") (A") (A') (A') (A") (A') (A') (A")
                 (A') (A") (A") (A') (A') (A") (A') (A") (A') (A")
                 (A") (A') (A') (A") (A') (A") (A') (A") (A') (A')
                 (A") (A") (A')
       Virtual   (A') (A") (A") (A') (A') (A") (A') (A") (A') (A")
                 (A') (A') (A") (A') (A") (A') (A') (A") (A') (A")
                 (A") (A") (A') (A') (A") (A') (A') (A') (A') (A")
                 (A') (A") (A") (A') (A') (A") (A') (A") (A") (A')
                 (A') (A") (A") (A') (A") (A') (A") (A') (A") (A')
                 (A') (A") (A') (A") (A') (A') (A") (A") (A') (A")
                 (A') (A') (A') (A') (A") (A") (A") (A") (A') (A')
                 (A") (A') (A') (A") (A') (A') (A') (A") (A') (A')
                 (A") (A") (A") (A") (A') (A') (A") (A') (A") (A')
                 (A") (A') (A") (A") (A') (A') (A') (A") (A') (A")
                 (A') (A') (A") (A') (A") (A") (A') (A') (A") (A')
                 (A') (A") (A') (A") (A') (A") (A") (A") (A') (A")
                 (A') (A") (A') (A") (A') (A") (A') (A') (A") (A')
                 (A') (A") (A') (A') (A") (A') (A") (A") (A') (A')
                 (A') (A") (A') (A") (A') (A") (A") (A') (A") (A')
                 (A") (A') (A") (A') (A") (A') (A") (A') (A') (A")
                 (A') (A") (A') (A') (A") (A') (A") (A') (A") (A")
                 (A") (A') (A") (A') (A') (A') (A") (A') (A") (A")
                 (A') (A") (A') (A") (A') (A") (A") (A') (A") (A')
                 (A') (A') (A') (A') (A") (A') (A") (A') (A") (A")
                 (A') (A") (A") (A') (A") (A') (A') (A") (A') (A")
                 (A") (A') (A") (A') (A") (A") (A') (A') (A') (A")
                 (A') (A") (A') (A') (A") (A") (A') (A') (A") (A')
                 (A') (A") (A') (A") (A") (A") (A') (A') (A") (A')
                 (A") (A") (A') (A') (A") (A') (A') (A") (A") (A")
                 (A') (A") (A") (A') (A') (A') (A') (A") (A') (A")
                 (A") (A') (A") (A') (A') (A') (A") (A") (A') (A")
                 (A') (A') (A") (A") (A') (A") (A") (A') (A') (A")
                 (A') (A") (A') (A") (A') (A") (A') (A") (A") (A')
                 (A') (A') (A') (A") (A') (A') (A") (A") (A') (A")
                 (A') (A') (A") (A') (A') (A") (A") (A") (A") (A")
                 (A') (A') (A') (A") (A") (A') (A') (A") (A') (A')
                 (A") (A") (A') (A") (A') (A') (A") (A') (A") (A')
                 (A') (A") (A') (A') (A") (A') (A') (A") (A") (A')
                 (A") (A") (A") (A') (A") (A') (A") (A') (A') (A')
                 (A") (A') (A") (A') (A') (A") (A') (A") (A') (A')
                 (A") (A') (A") (A') (A") (A") (A') (A') (A") (A')
                 (A") (A") (A") (A") (A") (A') (A') (A') (A") (A')
                 (A") (A') (A') (A") (A") (A') (A') (A") (A') (A")
                 (A') (A") (A") (A') (A') (A") (A') (A') (A") (A")
                 (A') (A') (A") (A") (A") (A') (A") (A') (A') (A")
                 (A") (A') (A') (A') (A') (A") (A") (A') (A') (A")
                 (A") (A') (A") (A") (A') (A") (A") (A") (A') (A")
                 (A') (A') (A') (A') (A') (A") (A') (A") (A") (A')
                 (A') (A") (A') (A') (A") (A') (A") (A") (A") (A')
                 (A') (A") (A') (A") (A') (A") (A') (A") (A') (A")
                 (A') (A") (A') (A") (A") (A') (A') (A") (A') (A')
                 (A") (A') (A") (A") (A') (A") (A") (A') (A') (A")
                 (A") (A') (A") (A') (A") (A') (A') (A") (A") (A')
                 (A") (A') (A") (A') (A') (A') (A") (A') (A") (A")
                 (A") (A') (A') (A") (A') (A") (A") (A') (A') (A")
                 (A') (A') (A") (A") (A") (A') (A") (A') (A') (A')
                 (A") (A') (A") (A") (A') (A') (A") (A') (A") (A")
                 (A') (A') (A') (A") (A') (A") (A") (A') (A') (A")
                 (A') (A") (A') (A') (A") (A") (A') (A') (A") (A")
                 (A') (A') (A") (A') (A') (A") (A') (A") (A") (A')
                 (A') (A") (A') (A") (A') (A") (A") (A') (A") (A')
                 (A") (A') (A') (A") (A') (A') (A') (A") (A") (A')
                 (A") (A') (A") (A") (A') (A") (A') (A") (A") (A')
                 (A') (A') (A') (A") (A') (A") (A') (A") (A') (A")
                 (A') (A") (A") (A") (A') (A') (A") (A') (A") (A')
                 (A") (A') (A') (A") (A') (A") (A') (A") (A') (A')
                 (A") (A') (A") (A") (A') (A") (A') (A") (A') (A")
                 (A") (A') (A") (A") (A") (A') (A') (A') (A') (A')
                 (A") (A") (A') (A") (A") (A') (A") (A') (A') (A")
                 (A') (A") (A') (A") (A') (A") (A") (A') (A") (A')
                 (A") (A') (A") (A') (A") (A") (A') (A') (A") (A')
                 (A') (A") (A") (A') (A') (A") (A') (A") (A') (A')
                 (A") (A') (A') (A") (A') (A") (A') (A') (A") (A")
                 (A') (A") (A') (A') (A") (A") (A') (A") (A') (A')
                 (A") (A") (A') (A") (A') (A") (A') (A') (A") (A')
                 (A") (A') (A") (A') (A") (A') (A') (A") (A') (A')
                 (A") (A") (A') (A") (A") (A') (A') (A') (A') (A")
                 (A") (A") (A') (A") (A') (A") (A') (A") (A") (A')
                 (A") (A') (A") (A') (A") (A') (A') (A") (A") (A')
                 (A') (A") (A') (A') (A") (A') (A") (A') (A") (A')
                 (A") (A') (A') (A") (A") (A') (A') (A') (A") (A")
                 (A") (A') (A') (A") (A') (A') (A") (A') (A") (A')
                 (A") (A') (A') (A") (A") (A") (A') (A") (A') (A')
                 (A") (A') (A") (A") (A') (A") (A') (A') (A') (A")
                 (A") (A') (A") (A') (A") (A') (A") (A') (A') (A")
                 (A") (A') (A') (A") (A') (A") (A") (A') (A") (A')
[...]
                 (A') (A') (A") (A") (A') (A") (A') (A") (A') (A')
                 (A") (A") (A')
       Virtual   (A') (A") (A") (A') (A') (A") (A') (A') (A') (A")
                 (A") (A') (A") (A') (A") (A') (A") (A") (A') (A")
                 (A') (A') (A") (A') (A") (A') (A') (A') (A') (A")
                 (A") (A") (A") (A') (A') (A") (A') (A") (A') (A")
                 (A') (A') (A') (A") (A') (A") (A") (A') (A') (A")
                 (A") (A') (A') (A") (A') (A") (A") (A") (A') (A")
                 (A') (A') (A') (A') (A') (A") (A') (A') (A") (A")
                 (A") (A') (A') (A') (A") (A') (A") (A") (A") (A')
                 (A') (A") (A') (A") (A") (A') (A") (A') (A') (A')
                 (A') (A') (A") (A") (A") (A") (A') (A") (A') (A")
                 (A') (A') (A') (A") (A") (A') (A') (A") (A') (A")
                 (A') (A") (A") (A") (A') (A') (A") (A') (A') (A")
                 (A') (A") (A") (A') (A') (A") (A') (A") (A') (A")
                 (A") (A') (A') (A') (A') (A") (A") (A") (A') (A")
                 (A') (A") (A') (A") (A') (A') (A") (A") (A') (A")
                 (A') (A") (A') (A") (A') (A') (A") (A') (A") (A")
                 (A') (A") (A') (A') (A") (A") (A') (A") (A') (A")
                 (A') (A') (A") (A') (A') (A") (A") (A') (A') (A')
                 (A") (A') (A") (A") (A") (A") (A') (A") (A') (A')
                 (A") (A') (A") (A') (A') (A') (A") (A') (A") (A')
                 (A") (A") (A') (A') (A") (A") (A') (A') (A") (A')
                 (A') (A') (A') (A") (A") (A") (A") (A') (A') (A")
                 (A') (A") (A") (A') (A") (A') (A") (A') (A") (A')
                 (A") (A') (A') (A") (A') (A") (A") (A') (A') (A")
                 (A") (A') (A') (A") (A") (A') (A") (A") (A") (A')
                 (A') (A") (A') (A') (A") (A') (A') (A") (A') (A")
                 (A") (A') (A") (A') (A') (A") (A") (A") (A') (A')
                 (A") (A') (A') (A") (A") (A") (A') (A") (A') (A')
                 (A") (A') (A") (A') (A") (A') (A') (A') (A") (A')
                 (A") (A") (A') (A') (A") (A") (A') (A") (A') (A")
                 (A') (A') (A") (A") (A') (A') (A") (A') (A') (A')
                 (A") (A") (A') (A") (A') (A") (A') (A") (A') (A')
                 (A') (A") (A") (A") (A') (A") (A') (A') (A') (A")
                 (A") (A') (A") (A') (A') (A") (A') (A") (A") (A')
                 (A') (A") (A') (A") (A") (A') (A') (A") (A') (A")
                 (A') (A") (A') (A") (A') (A") (A") (A') (A') (A")
                 (A') (A") (A') (A') (A") (A") (A') (A") (A') (A')
                 (A") (A') (A") (A') (A') (A") (A') (A") (A') (A")
                 (A") (A') (A") (A') (A") (A') (A") (A') (A') (A")
                 (A") (A') (A") (A') (A') (A") (A") (A') (A') (A")
                 (A') (A") (A') (A") (A') (A') (A")
 The electronic state is 1-A'.
 Alpha  occ. eigenvalues --  -10.18931 -10.18930 -10.18896 -10.18895 -10.18848
 Alpha  occ. eigenvalues --  -10.18848 -10.18813 -10.18813 -10.17956 -10.17955
 Alpha  occ. eigenvalues --  -10.17920 -10.17920 -10.17919 -10.17919 -10.17875
 Alpha  occ. eigenvalues --  -10.17875 -10.17863 -10.17863 -10.17808 -10.17808
 Alpha  occ. eigenvalues --  -10.17781 -10.17781  -0.89340  -0.87865  -0.85549
 Alpha  occ. eigenvalues --   -0.82415  -0.79820  -0.78521  -0.78314  -0.75991
 Alpha  occ. eigenvalues --   -0.74255  -0.72901  -0.69196  -0.67344  -0.62728
 Alpha  occ. eigenvalues --   -0.62370  -0.61108  -0.59964  -0.59301  -0.57689
 Alpha  occ. eigenvalues --   -0.52709  -0.52573  -0.52293  -0.49654  -0.48513
 Alpha  occ. eigenvalues --   -0.47160  -0.46110  -0.45590  -0.45476  -0.43928
 Alpha  occ. eigenvalues --   -0.43182  -0.42578  -0.41808  -0.41572  -0.41386
 Alpha  occ. eigenvalues --   -0.40692  -0.40405  -0.39579  -0.38193  -0.36732
 Alpha  occ. eigenvalues --   -0.36341  -0.35550  -0.34094  -0.33809  -0.33058
 Alpha  occ. eigenvalues --   -0.32930  -0.31612  -0.29665  -0.28406  -0.26623
 Alpha  occ. eigenvalues --   -0.24364  -0.22582  -0.17855
 Alpha virt. eigenvalues --   -0.09755  -0.04464  -0.02747  -0.00147   0.02073
 Alpha virt. eigenvalues --    0.02370   0.03189   0.04746   0.04859   0.04871
 Alpha virt. eigenvalues --    0.06161   0.06575   0.07968   0.08162   0.08303
 Alpha virt. eigenvalues --    0.09607   0.10049   0.11524   0.11533   0.13796
 Alpha virt. eigenvalues --    0.14111   0.14670   0.18092   0.18194   0.18832
 Alpha virt. eigenvalues --    0.19391   0.22815   0.23002   0.24379   0.24942
 Alpha virt. eigenvalues --    0.25581   0.27528   0.27575   0.28012   0.28228
 Alpha virt. eigenvalues --    0.28947   0.29389   0.30158   0.30759   0.31175
 Alpha virt. eigenvalues --    0.32897   0.34528   0.36420   0.36484   0.37134
 Alpha virt. eigenvalues --    0.37503   0.37629   0.37651   0.38116   0.38643
 Alpha virt. eigenvalues --    0.39094   0.39439   0.39739   0.40236   0.40435
 Alpha virt. eigenvalues --    0.41918   0.41926   0.41940   0.42289   0.42318
 Alpha virt. eigenvalues --    0.42643   0.43748   0.44233   0.44835   0.45295
 Alpha virt. eigenvalues --    0.45683   0.45924   0.45953   0.46379   0.47165
 Alpha virt. eigenvalues --    0.47805   0.47809   0.47978   0.48073   0.48231
 Alpha virt. eigenvalues --    0.48568   0.49414   0.49572   0.51377   0.51846
 Alpha virt. eigenvalues --    0.52370   0.53118   0.53671   0.55998   0.57923
 Alpha virt. eigenvalues --    0.57955   0.59048   0.59201   0.60433   0.60585
 Alpha virt. eigenvalues --    0.60693   0.61101   0.61690   0.62105   0.62173
 Alpha virt. eigenvalues --    0.63432   0.63481   0.64458   0.64535   0.65533
 Alpha virt. eigenvalues --    0.66693   0.66910   0.67680   0.67724   0.70658
 Alpha virt. eigenvalues --    0.71305   0.71405   0.71494   0.72803   0.73989
 Alpha virt. eigenvalues --    0.75405   0.75894   0.76289   0.77801   0.77809
 Alpha virt. eigenvalues --    0.78943   0.79160   0.79723   0.81162   0.81509
 Alpha virt. eigenvalues --    0.82881   0.83001   0.84383   0.84585   0.84713
 Alpha virt. eigenvalues --    0.88087   0.89711   0.89765   0.91536   0.92083
 Alpha virt. eigenvalues --    0.92578   0.93749   0.95806   0.96107   0.96442
 Alpha virt. eigenvalues --    0.96590   0.96905   0.98547   1.00356   1.01118
 Alpha virt. eigenvalues --    1.02686   1.03027   1.03354   1.04405   1.05244
 Alpha virt. eigenvalues --    1.05439   1.05525   1.05950   1.07395   1.07547
 Alpha virt. eigenvalues --    1.07686   1.08438   1.10005   1.10036   1.12070
 Alpha virt. eigenvalues --    1.13223   1.13544   1.13650   1.14526   1.15341
 Alpha virt. eigenvalues --    1.17432   1.18332   1.19657   1.20432   1.23014
 Alpha virt. eigenvalues --    1.23618   1.27884   1.28234   1.30579   1.32076
 Alpha virt. eigenvalues --    1.32743   1.34942   1.37641   1.39236   1.39896
 Alpha virt. eigenvalues --    1.39942   1.40725   1.42751   1.43476   1.43554
 Alpha virt. eigenvalues --    1.45057   1.46086   1.47119   1.47538   1.48841
 Alpha virt. eigenvalues --    1.49280   1.49417   1.50258   1.50674   1.52268
 Alpha virt. eigenvalues --    1.52650   1.53402   1.54331   1.54372   1.54781
 Alpha virt. eigenvalues --    1.54807   1.57107   1.57715   1.58569   1.59882
 Alpha virt. eigenvalues --    1.60106   1.62692   1.63242   1.64856   1.66641
 Alpha virt. eigenvalues --    1.69292   1.69605   1.69709   1.70649   1.71804
 Alpha virt. eigenvalues --    1.72459   1.72619   1.73075   1.73096   1.73680
 Alpha virt. eigenvalues --    1.77494   1.78519   1.79157   1.79419   1.80511
 Alpha virt. eigenvalues --    1.81616   1.81887   1.82058   1.83581   1.84039
 Alpha virt. eigenvalues --    1.85487   1.87392   1.87456   1.87577   1.87728
 Alpha virt. eigenvalues --    1.88131   1.88613   1.90743   1.91387   1.92190
 Alpha virt. eigenvalues --    1.92193   1.92572   1.92670   1.93517   1.93938
 Alpha virt. eigenvalues --    1.94544   1.95483   1.97262   1.99429   2.00088
 Alpha virt. eigenvalues --    2.00602   2.01362   2.03019   2.05757   2.08293
 Alpha virt. eigenvalues --    2.09111   2.09256   2.09792   2.12192   2.14098
 Alpha virt. eigenvalues --    2.15528   2.15584   2.17200   2.19751   2.20833
 Alpha virt. eigenvalues --    2.21576   2.22525   2.23381   2.24503   2.26441
 Alpha virt. eigenvalues --    2.26972   2.27242   2.27719   2.28046   2.29391
 Alpha virt. eigenvalues --    2.33301   2.35725   2.39155   2.39384   2.40817
 Alpha virt. eigenvalues --    2.42649   2.43076   2.45776   2.45994   2.46870
 Alpha virt. eigenvalues --    2.51623   2.51954   2.53354   2.53485   2.55138
 Alpha virt. eigenvalues --    2.56159   2.58701   2.58838   2.59764   2.59776
 Alpha virt. eigenvalues --    2.60682   2.61147   2.61719   2.62222   2.63349
 Alpha virt. eigenvalues --    2.63999   2.64478   2.66054   2.66794   2.67121
 Alpha virt. eigenvalues --    2.67374   2.68356   2.68872   2.68876   2.69372
 Alpha virt. eigenvalues --    2.69557   2.69907   2.70083   2.70281   2.73482
 Alpha virt. eigenvalues --    2.74771   2.74836   2.76066   2.77101   2.77577
 Alpha virt. eigenvalues --    2.78232   2.78455   2.78850   2.80822   2.82359
 Alpha virt. eigenvalues --    2.85535   2.85993   2.86737   2.87294   2.90966
 Alpha virt. eigenvalues --    2.91783   2.92195   2.93676   2.95232   2.95887
 Alpha virt. eigenvalues --    2.99270   2.99858   3.03165   3.05604   3.06852
 Alpha virt. eigenvalues --    3.07371   3.15988   3.16029   3.16647   3.19843
 Alpha virt. eigenvalues --    3.20017   3.23601   3.29134   3.29680   3.31610
 Alpha virt. eigenvalues --    3.35095   3.35458   3.35677   3.35858   3.38023
 Alpha virt. eigenvalues --    3.39887   3.41413   3.44960   3.45362   3.47993
 Alpha virt. eigenvalues --    3.48278   3.50401   3.53073   3.57439   3.58649
 Alpha virt. eigenvalues --    3.61466   3.62620   3.63208   3.63698   3.65910
 Alpha virt. eigenvalues --    3.67534   3.67678   4.00384   4.00442   4.01859
 Alpha virt. eigenvalues --    4.02182   4.16133   4.16678   4.17360   4.21240
 Alpha virt. eigenvalues --    4.22396   4.22517   4.25488   4.38492   4.62290
 Alpha virt. eigenvalues --    4.79179   4.79740   4.80562   4.82562   4.83014
 Alpha virt. eigenvalues --   23.39176  23.54541  23.69085  23.77378  23.80419
 Alpha virt. eigenvalues --   23.81537  23.86099  23.89067  23.89154  23.92210
 Alpha virt. eigenvalues --   23.97563  23.98365  24.09049  24.09932  24.10529
 Alpha virt. eigenvalues --   24.12220  24.13779  24.14375  24.15775  24.15810
 Alpha virt. eigenvalues --   24.20452  24.20497
          Condensed to atoms (all electrons):
 Mulliken charges:
               1
     1  C    0.000000
     2  C    0.000000
     3  C    0.000000
     4  C    0.000000
     5  C    0.000000
     6  C    0.000000
     7  C    0.000000
     8  C    0.000000
     9  C    0.000000
    10  C    0.000000
    11  H    0.000000
    12  H    0.000000
    13  H    0.000000
    14  H    0.000000
    15  H    0.000000
    16  H    0.000000
    17  C    0.000000
    18  C    0.000000
    19  C    0.000000
    20  C    0.000000
    21  H    0.000000
    22  H    0.000000
    23  C    0.000000
    24  C    0.000000
    25  C    0.000000
    26  C    0.000000
    27  H    0.000000
    28  H    0.000000
    29  C    0.000000
    30  C    0.000000
    31  C    0.000000
    32  C    0.000000
    33  H    0.000000
    34  H    0.000000
    35  H    0.000000
    36  H    0.000000
    37  C   -0.059168
    38  C   -0.059168
    39  C   -0.055977
    40  C   -0.055977
    41  C   -0.092198
    42  C   -0.092198
    43  C   -0.016525
    44  C   -0.054498
    45  C   -0.016525
    46  C   -0.054498
    47  H    0.082122
    48  H    0.074853
    49  H    0.074853
    50  H    0.082122
    51  H    0.094847
    52  H    0.094847
    53  C   -0.020341
    54  C   -0.054498
    55  C   -0.020341
    56  C   -0.054498
    57  H    0.073428
    58  H    0.073428
    59  C   -0.016525
    60  C   -0.059168
    61  C   -0.016525
    62  C   -0.059168
    63  H    0.074853
    64  H    0.074853
    65  C   -0.055977
    66  C   -0.092198
    67  C   -0.055977
    68  C   -0.092198
    69  H    0.082122
    70  H    0.094847
    71  H    0.094847
    72  H    0.082122
 Sum of Mulliken charges =   0.00000
 Mulliken charges with hydrogens summed into heavy atoms:
               1
     1  C    0.000000
     2  C    0.000000
     3  C    0.000000
     4  C    0.000000
     5  C    0.000000
     6  C    0.000000
     7  C    0.000000
     8  C    0.000000
     9  C    0.000000
    10  C    0.000000
    17  C    0.000000
    18  C    0.000000
    19  C    0.000000
    20  C    0.000000
    23  C    0.000000
    24  C    0.000000
    25  C    0.000000
    26  C    0.000000
    29  C    0.000000
    30  C    0.000000
    31  C    0.000000
    32  C    0.000000
    37  C   -0.059168
    38  C   -0.059168
    39  C    0.026144
    40  C    0.026144
    41  C    0.002649
    42  C    0.002649
    43  C    0.058328
    44  C   -0.054498
    45  C    0.058328
    46  C   -0.054498
    53  C    0.053087
    54  C   -0.054498
    55  C    0.053087
    56  C   -0.054498
    59  C    0.058328
    60  C   -0.059168
    61  C    0.058328
    62  C   -0.059168
    65  C    0.026144
    66  C    0.002649
    67  C    0.026144
    68  C    0.002649
         Mulliken charges condensed to fragments:
      1      0.000000
      2      0.000000
 Electronic spatial extent (au):  <R**2>=          17640.1928
 Charge=              0.0000 electrons
 Dipole moment (field-independent basis, Debye):
    X=              0.0000    Y=              0.0000    Z=              0.0000  Tot=              0.0000
 Quadrupole moment (field-independent basis, Debye-Ang):
   XX=           -136.3921   YY=           -110.7480   ZZ=           -109.0115
   XY=              0.0000   XZ=              0.0000   YZ=              0.0000
 Traceless Quadrupole moment (field-independent basis, Debye-Ang):
   XX=            -17.6749   YY=              7.9692   ZZ=              9.7057
   XY=              0.0000   XZ=              0.0000   YZ=              0.0000
 Octapole moment (field-independent basis, Debye-Ang**2):
  XXX=           1157.3250  YYY=            939.7282  ZZZ=              0.0000  XYY=            313.2428
  XXY=            385.7750  XXZ=              0.0000  XZZ=            308.3310  YZZ=            308.3310
  YYZ=              0.0000  XYZ=              0.0000
 Hexadecapole moment (field-independent basis, Debye-Ang**3):
 XXXX=          -6701.2227 YYYY=          -6432.6223 ZZZZ=         -10461.4325 XXXY=          -3273.4094
 XXXZ=              0.0000 YYYX=          -2657.9527 YYYZ=              0.0000 ZZZX=              0.0000
 ZZZY=              0.0000 XXYY=          -2233.5361 XXZZ=          -3080.0238 YYZZ=          -2841.3062
 XXYZ=              0.0000 YYXZ=              0.0000 ZZXY=           -872.0918
 N-N= 1.494327110001D+03 E-N=-4.953709171465D+03  KE= 8.433374904125D+02
 Symmetry A'   KE= 4.567052305076D+02
 Symmetry A"   KE= 3.866322599049D+02
 No NMR shielding tensors so no spin-rotation constants.
 Leave Link  601 at Wed Sep 27 17:16:24 2023, MaxMem=  3221225472 cpu:              18.7 elap:               0.5
 (Enter /home/center/opt/aarch64/apps/gaussian16/c01/g16/l122.exe)
 CPIOFr:  IOpCl= 0 IRwI=-1 IRwCP=  731 ICalc=  4 LCPTot=     1419224 Len1MO=     3708034 IndFrg=    19959394
 Restoring MOs from calculation   1 to rwf.
 CPIOFr:  IOpCl= 0 IRwI=-2 IRwCP=  731 ICalc=  0 LCPTot=     1419224 Len1MO=     3708034 IndFrg=     5127258
 Counterpoise corrected energy =   -1694.041458335814
                   BSSE energy =       0.000021983379
              sum of fragments =   -1694.039683044268
           complexation energy =      -1.13 kcal/mole (raw)
           complexation energy =      -1.11 kcal/mole (corrected)
 Leave Link  122 at Wed Sep 27 17:16:26 2023, MaxMem=  3221225472 cpu:               8.3 elap:               0.3
 (Enter /home/center/opt/aarch64/apps/gaussian16/c01/g16/l9999.exe)

 Test job not archived.
 1\1\GINC-FX0483\SP\RB3LYP\6-311G(d,p)\C44H28\Z40145W\27-Sep-2023\0\\#P
  TEST b3lyp/6-311G** EmpiricalDispersion=GD3 counterpoise=2\\pentacene
 _A1=0_A2=0_A3=45_p2\\0,1\C,0,-0.5039478476,0.5239478476,-3.6612755801\
 C,0,0.5239480325,-0.5039480325,-3.6612755629\C,0,-0.9861248463,1.00612
 48463,-4.9235927708\C,0,1.0061250889,-0.9861250889,-4.9235926697\C,0,-
 0.4963213507,0.5163213507,-6.096356521\C,0,0.5163216812,-0.4963216812,
 -6.0963564796\C,0,-0.9844684311,1.0044684311,-2.4533174875\C,0,-0.5044
 88426,0.524488426,-1.2140288145\C,0,1.0044685359,-0.9844685359,-2.4533
 173917\C,0,0.5244885437,-0.5044885437,-1.2140288362\H,0,-1.7533559667,
 1.7733559667,-4.9232600459\H,0,-1.7521866813,1.7721866813,-2.453928581
 5\H,0,1.7721859268,-1.7521859268,-2.4539284818\H,0,1.7733558421,-1.753
 3558421,-4.9232597785\H,0,0.8905568758,-0.8705568758,-7.0425276922\H,0
 ,-0.8705565046,0.8905565046,-7.042527775\C,0,-0.9848184961,1.004818496
 1,0.0099998782\C,0,-0.5044883957,0.5244883957,1.2340295553\C,0,1.00481
 85643,-0.9848185643,0.0099998696\C,0,0.5244885146,-0.5044885146,1.2340
 295261\H,0,-1.7524699697,1.7724699697,0.0099999205\H,0,1.772468921,-1.
 752468921,0.0099999641\C,0,-0.9844683048,1.0044683048,2.4733171385\C,0
 ,-0.5039477114,0.5239477114,3.681276331\C,0,1.0044684211,-0.9844684211
 ,2.4733170835\C,0,0.5239479079,-0.5039479079,3.6812763217\H,0,-1.75218
 65527,1.7721865527,2.4739285326\H,0,1.7721858092,-1.7521858092,2.47392
 83796\C,0,-0.9861245177,1.0061245177,4.9435920588\C,0,-0.4963209372,0.
 5163209372,6.116356633\C,0,1.0061247659,-0.9861247659,4.9435919377\C,0
 ,0.5163212637,-0.4963212637,6.1163566075\H,0,-1.7533556504,1.773355650
 4,4.9432601504\H,0,-0.8705567426,0.8905567426,7.0625274368\H,0,0.89055
 70967,-0.8705570967,7.0625272142\H,0,1.7733555414,-1.7533555414,4.9432
 599297\C,0,7.4960521524,0.5239478476,-3.6612755801\C,0,8.5239480325,-0
 .5039480325,-3.6612755629\C,0,7.0138751537,1.0061248463,-4.9235927708\
 C,0,9.0061250889,-0.9861250889,-4.9235926697\C,0,7.5036786493,0.516321
 3507,-6.096356521\C,0,8.5163216812,-0.4963216812,-6.0963564796\C,0,7.0
 155315689,1.0044684311,-2.4533174875\C,0,7.495511574,0.524488426,-1.21
 40288145\C,0,9.0044685359,-0.9844685359,-2.4533173917\C,0,8.5244885437
 ,-0.5044885437,-1.2140288362\H,0,6.2466440333,1.7733559667,-4.92326004
 59\H,0,6.2478133187,1.7721866813,-2.4539285815\H,0,9.7721859268,-1.752
 1859268,-2.4539284818\H,0,9.7733558421,-1.7533558421,-4.9232597785\H,0
 ,8.8905568758,-0.8705568758,-7.0425276922\H,0,7.1294434954,0.890556504
 6,-7.042527775\C,0,7.0151815039,1.0048184961,0.0099998782\C,0,7.495511
 6043,0.5244883957,1.2340295553\C,0,9.0048185643,-0.9848185643,0.009999
 8696\C,0,8.5244885146,-0.5044885146,1.2340295261\H,0,6.2475300303,1.77
 24699697,0.0099999205\H,0,9.772468921,-1.752468921,0.0099999641\C,0,7.
 0155316952,1.0044683048,2.4733171385\C,0,7.4960522886,0.5239477114,3.6
 81276331\C,0,9.0044684211,-0.9844684211,2.4733170835\C,0,8.5239479079,
 -0.5039479079,3.6812763217\H,0,6.2478134473,1.7721865527,2.4739285326\
 H,0,9.7721858092,-1.7521858092,2.4739283796\C,0,7.0138754823,1.0061245
 177,4.9435920588\C,0,7.5036790628,0.5163209372,6.116356633\C,0,9.00612
 47659,-0.9861247659,4.9435919377\C,0,8.5163212637,-0.4963212637,6.1163
 566075\H,0,6.2466443496,1.7733556504,4.9432601504\H,0,7.1294432574,0.8
 905567426,7.0625274368\H,0,8.8905570967,-0.8705570967,7.0625272142\H,0
 ,9.7733555414,-1.7533555414,4.9432599297\\Version=Fujitsu-Arm-G16RevC.
 01\State=1-A'\HF=-847.0198415\RMSD=3.186e-09\Dipole=0.0000189,-0.00001
 87,0.\Quadrupole=-7.8783043,-6.5002268,14.3785311,-18.3248264,0.,0.\PG
 =CS [SG(C4H4),X(C40H24)]\\@


 A HARD FALL SHOULD MEAN A HIGH BOUNCE 
 IF ONE IS MADE OF THE RIGHT MATERIAL.

                -- THE CHEMIST ANALYST, MARCH 1950
 Job cpu time:       0 days  2 hours 45 minutes 16.5 seconds.
 Elapsed time:       0 days  0 hours  4 minutes 21.4 seconds.
 File lengths (MBytes):  RWF=    718 Int=      0 D2E=      0 Chk=    208 Scr=      1
 Normal termination of Gaussian 16 at Wed Sep 27 17:16:32 2023.
