 Entering Gaussian System, Link 0=g16
 Initial command:
 /home/center/opt/aarch64/apps/gaussian16/c01/g16/l1.exe "/data/tmp/Gtmp/1006930/Gau-49.inp" -scrdir="/data/tmp/Gtmp/1006930/"
 Entering Link 1 = /home/center/opt/aarch64/apps/gaussian16/c01/g16/l1.exe PID=        50.
  
 Copyright (c) 1988-2019, Gaussian, Inc.  All Rights Reserved.
  
 This is part of the Gaussian(R) 16 program.  It is based on
 the Gaussian(R) 09 system (copyright 2009, Gaussian, Inc.),
 the Gaussian(R) 03 system (copyright 2003, Gaussian, Inc.),
 the Gaussian(R) 98 system (copyright 1998, Gaussian, Inc.),
 the Gaussian(R) 94 system (copyright 1995, Gaussian, Inc.),
 the Gaussian 92(TM) system (copyright 1992, Gaussian, Inc.),
 the Gaussian 90(TM) system (copyright 1990, Gaussian, Inc.),
 the Gaussian 88(TM) system (copyright 1988, Gaussian, Inc.),
 the Gaussian 86(TM) system (copyright 1986, Carnegie Mellon
 University), and the Gaussian 82(TM) system (copyright 1983,
 Carnegie Mellon University). Gaussian is a federally registered
 trademark of Gaussian, Inc.
  
 This software contains proprietary and confidential information,
 including trade secrets, belonging to Gaussian, Inc.
  
 This software is provided under written license and may be
 used, copied, transmitted, or stored only in accord with that
 written license.
  
 The following legend is applicable only to US Government
 contracts under FAR:
  
                    RESTRICTED RIGHTS LEGEND
  
 Use, reproduction and disclosure by the US Government is
 subject to restrictions as set forth in subparagraphs (a)
 and (c) of the Commercial Computer Software - Restricted
 Rights clause in FAR 52.227-19.
  
 Gaussian, Inc.
 340 Quinnipiac St., Bldg. 40, Wallingford CT 06492
  
  
 ---------------------------------------------------------------
 Warning -- This program may not be used in any manner that
 competes with the business of Gaussian, Inc. or will provide
 assistance to any competitor of Gaussian, Inc.  The licensee
 of this program is prohibited from giving any competitor of
 Gaussian, Inc. access to this program.  By using this program,
 the user acknowledges that Gaussian, Inc. is engaged in the
 business of creating and licensing software in the field of
 computational chemistry and represents and warrants to the
 licensee that it is not a competitor of Gaussian, Inc. and that
 it will not use this program in any manner prohibited above.
 ---------------------------------------------------------------
  

 Cite this work as:
 Gaussian 16, Revision C.01,
 M. J. Frisch, G. W. Trucks, H. B. Schlegel, G. E. Scuseria, 
 M. A. Robb, J. R. Cheeseman, G. Scalmani, V. Barone, 
 G. A. Petersson, H. Nakatsuji, X. Li, M. Caricato, A. V. Marenich, 
 J. Bloino, B. G. Janesko, R. Gomperts, B. Mennucci, H. P. Hratchian, 
 J. V. Ortiz, A. F. Izmaylov, J. L. Sonnenberg, D. Williams-Young, 
 F. Ding, F. Lipparini, F. Egidi, J. Goings, B. Peng, A. Petrone, 
 T. Henderson, D. Ranasinghe, V. G. Zakrzewski, J. Gao, N. Rega, 
 G. Zheng, W. Liang, M. Hada, M. Ehara, K. Toyota, R. Fukuda, 
 J. Hasegawa, M. Ishida, T. Nakajima, Y. Honda, O. Kitao, H. Nakai, 
 T. Vreven, K. Throssell, J. A. Montgomery, Jr., J. E. Peralta, 
 F. Ogliaro, M. J. Bearpark, J. J. Heyd, E. N. Brothers, K. N. Kudin, 
 V. N. Staroverov, T. A. Keith, R. Kobayashi, J. Normand, 
 K. Raghavachari, A. P. Rendell, J. C. Burant, S. S. Iyengar, 
 J. Tomasi, M. Cossi, J. M. Millam, M. Klene, C. Adamo, R. Cammi, 
 J. W. Ochterski, R. L. Martin, K. Morokuma, O. Farkas, 
 J. B. Foresman, and D. J. Fox, Gaussian, Inc., Wallingford CT, 2019.
 
 ************************************************
 Gaussian 16:  Fujitsu-Arm-G16RevC.01  3-Jul-2019
                   27-Sep-2023 
 ************************************************
 %mem=24GB
 %nproc=42
 Will use up to   42 processors via shared memory.
 -------------------------------------------------------------
 #P TEST b3lyp/6-311G** EmpiricalDispersion=GD3 counterpoise=2
 -------------------------------------------------------------
 1/38=1,62=2,172=1/1;
 2/12=2,17=6,18=5,40=1/2;
 1/38=1,53=2,62=2,63=1/22;
 3/5=4,6=6,7=101,11=2,25=1,30=1,74=-5,124=31/1,2,3;
 4//1;
 5/5=2,38=5/2;
 6/7=2,8=2,9=2,10=2,28=1/1;
 1/53=2,62=2,63=1/22;
 3/5=7,6=11,7=101,11=2,25=1,30=1,74=-5,82=7,124=31/1,2,3;
 4//1;
 5/5=2,38=5/2;
 6/7=2,8=2,9=2,10=2,28=1/1;
 1/53=2,62=2,63=1/22(-4);
 99/5=1,9=1/99;
 Leave Link    1 at Wed Sep 27 16:37:38 2023, MaxMem=  3221225472 cpu:               7.5 elap:               0.2
 (Enter /home/center/opt/aarch64/apps/gaussian16/c01/g16/l101.exe)
 ----------------------------
 pentacene_A1=0_A2=0_A3=45_t1
 ----------------------------
 Symbolic Z-matrix:
 Charge =  0 Multiplicity = 1 in supermolecule
 Charge =  0 Multiplicity = 1 in fragment      1.
 Charge =  0 Multiplicity = 1 in fragment      2.
 C(Fragment=1)        -0.50395   0.52395  -3.66128 
 C(Fragment=1)         0.52395  -0.50395  -3.66128 
 C(Fragment=1)        -0.98612   1.00612  -4.92359 
 C(Fragment=1)         1.00613  -0.98613  -4.92359 
 C(Fragment=1)        -0.49632   0.51632  -6.09636 
 C(Fragment=1)         0.51632  -0.49632  -6.09636 
 C(Fragment=1)        -0.98447   1.00447  -2.45332 
 C(Fragment=1)        -0.50449   0.52449  -1.21403 
 C(Fragment=1)         1.00447  -0.98447  -2.45332 
 C(Fragment=1)         0.52449  -0.50449  -1.21403 
 H(Fragment=1)        -1.75336   1.77336  -4.92326 
 H(Fragment=1)        -1.75219   1.77219  -2.45393 
 H(Fragment=1)         1.77219  -1.75219  -2.45393 
 H(Fragment=1)         1.77336  -1.75336  -4.92326 
 H(Fragment=1)         0.89056  -0.87056  -7.04253 
 H(Fragment=1)        -0.87056   0.89056  -7.04253 
 C(Fragment=1)        -0.98482   1.00482   0.01 
 C(Fragment=1)        -0.50449   0.52449   1.23403 
 C(Fragment=1)         1.00482  -0.98482   0.01 
 C(Fragment=1)         0.52449  -0.50449   1.23403 
 H(Fragment=1)        -1.75247   1.77247   0.01 
 H(Fragment=1)         1.77247  -1.75247   0.01 
 C(Fragment=1)        -0.98447   1.00447   2.47332 
 C(Fragment=1)        -0.50395   0.52395   3.68128 
 C(Fragment=1)         1.00447  -0.98447   2.47332 
 C(Fragment=1)         0.52395  -0.50395   3.68128 
 H(Fragment=1)        -1.75219   1.77219   2.47393 
 H(Fragment=1)         1.77219  -1.75219   2.47393 
 C(Fragment=1)        -0.98612   1.00612   4.94359 
 C(Fragment=1)        -0.49632   0.51632   6.11636 
 C(Fragment=1)         1.00612  -0.98612   4.94359 
 C(Fragment=1)         0.51632  -0.49632   6.11636 
 H(Fragment=1)        -1.75336   1.77336   4.94326 
 H(Fragment=1)        -0.87056   0.89056   7.06253 
 H(Fragment=1)         0.89056  -0.87056   7.06253 
 H(Fragment=1)         1.77336  -1.75336   4.94326 
 C(Fragment=2)         3.02395   5.52395  -3.66128 
 C(Fragment=2)         1.99605   4.49605  -3.66128 
 C(Fragment=2)         3.50612   6.00612  -4.92359 
 C(Fragment=2)         1.51387   4.01387  -4.92359 
 C(Fragment=2)         3.01632   5.51632  -6.09636 
 C(Fragment=2)         2.00368   4.50368  -6.09636 
 C(Fragment=2)         3.50447   6.00447  -2.45332 
 C(Fragment=2)         3.02449   5.52449  -1.21403 
 C(Fragment=2)         1.51553   4.01553  -2.45332 
 C(Fragment=2)         1.99551   4.49551  -1.21403 
 H(Fragment=2)         4.27336   6.77336  -4.92326 
 H(Fragment=2)         4.27219   6.77219  -2.45393 
 H(Fragment=2)         0.74781   3.24781  -2.45393 
 H(Fragment=2)         0.74664   3.24664  -4.92326 
 H(Fragment=2)         1.62944   4.12944  -7.04253 
 H(Fragment=2)         3.39056   5.89056  -7.04253 
 C(Fragment=2)         3.50482   6.00482   0.01 
 C(Fragment=2)         3.02449   5.52449   1.23403 
 C(Fragment=2)         1.51518   4.01518   0.01 
 C(Fragment=2)         1.99551   4.49551   1.23403 
 H(Fragment=2)         4.27247   6.77247   0.01 
 H(Fragment=2)         0.74753   3.24753   0.01 
 C(Fragment=2)         3.50447   6.00447   2.47332 
 C(Fragment=2)         3.02395   5.52395   3.68128 
 C(Fragment=2)         1.51553   4.01553   2.47332 
 C(Fragment=2)         1.99605   4.49605   3.68128 
 H(Fragment=2)         4.27219   6.77219   2.47393 
 H(Fragment=2)         0.74781   3.24781   2.47393 
 C(Fragment=2)         3.50612   6.00612   4.94359 
 C(Fragment=2)         3.01632   5.51632   6.11636 
 C(Fragment=2)         1.51388   4.01388   4.94359 
 C(Fragment=2)         2.00368   4.50368   6.11636 
 H(Fragment=2)         4.27336   6.77336   4.94326 
 H(Fragment=2)         3.39056   5.89056   7.06253 
 H(Fragment=2)         1.62944   4.12944   7.06253 
 H(Fragment=2)         0.74664   3.24664   4.94326 
 
 ITRead=  0  0  0  0  0  0  0  0  0  0  0  0  0  0  0  0  0  0  0  0
 ITRead=  0  0  0  0  0  0  0  0  0  0  0  0  0  0  0  0  0  0  0  0
 ITRead=  0  0  0  0  0  0  0  0  0  0  0  0  0  0  0  0  0  0  0  0
 ITRead=  0  0  0  0  0  0  0  0  0  0  0  0
 MicOpt= -1 -1 -1 -1 -1 -1 -1 -1 -1 -1 -1 -1 -1 -1 -1 -1 -1 -1 -1 -1
 MicOpt= -1 -1 -1 -1 -1 -1 -1 -1 -1 -1 -1 -1 -1 -1 -1 -1 -1 -1 -1 -1
 MicOpt= -1 -1 -1 -1 -1 -1 -1 -1 -1 -1 -1 -1 -1 -1 -1 -1 -1 -1 -1 -1
 MicOpt= -1 -1 -1 -1 -1 -1 -1 -1 -1 -1 -1 -1
 NAtoms=     72 NQM=       72 NQMF=       0 NMMI=      0 NMMIF=      0
                NMic=       0 NMicF=      0.
                    Isotopes and Nuclear Properties:
 (Nuclear quadrupole moments (NQMom) in fm**2, nuclear magnetic moments (NMagM)
  in nuclear magnetons)

  Atom         1           2           3           4           5           6           7           8           9          10
 IAtWgt=          12          12          12          12          12          12          12          12          12          12
 AtmWgt=  12.0000000  12.0000000  12.0000000  12.0000000  12.0000000  12.0000000  12.0000000  12.0000000  12.0000000  12.0000000
 NucSpn=           0           0           0           0           0           0           0           0           0           0
 AtZEff=   0.0000000   0.0000000   0.0000000   0.0000000   0.0000000   0.0000000   0.0000000   0.0000000   0.0000000   0.0000000
 NQMom=    0.0000000   0.0000000   0.0000000   0.0000000   0.0000000   0.0000000   0.0000000   0.0000000   0.0000000   0.0000000
 NMagM=    0.0000000   0.0000000   0.0000000   0.0000000   0.0000000   0.0000000   0.0000000   0.0000000   0.0000000   0.0000000
 AtZNuc=   6.0000000   6.0000000   6.0000000   6.0000000   6.0000000   6.0000000   6.0000000   6.0000000   6.0000000   6.0000000

  Atom        11          12          13          14          15          16          17          18          19          20
 IAtWgt=           1           1           1           1           1           1          12          12          12          12
 AtmWgt=   1.0078250   1.0078250   1.0078250   1.0078250   1.0078250   1.0078250  12.0000000  12.0000000  12.0000000  12.0000000
 NucSpn=           1           1           1           1           1           1           0           0           0           0
 AtZEff=   0.0000000   0.0000000   0.0000000   0.0000000   0.0000000   0.0000000   0.0000000   0.0000000   0.0000000   0.0000000
 NQMom=    0.0000000   0.0000000   0.0000000   0.0000000   0.0000000   0.0000000   0.0000000   0.0000000   0.0000000   0.0000000
 NMagM=    2.7928460   2.7928460   2.7928460   2.7928460   2.7928460   2.7928460   0.0000000   0.0000000   0.0000000   0.0000000
 AtZNuc=   1.0000000   1.0000000   1.0000000   1.0000000   1.0000000   1.0000000   6.0000000   6.0000000   6.0000000   6.0000000

  Atom        21          22          23          24          25          26          27          28          29          30
 IAtWgt=           1           1          12          12          12          12           1           1          12          12
 AtmWgt=   1.0078250   1.0078250  12.0000000  12.0000000  12.0000000  12.0000000   1.0078250   1.0078250  12.0000000  12.0000000
 NucSpn=           1           1           0           0           0           0           1           1           0           0
 AtZEff=   0.0000000   0.0000000   0.0000000   0.0000000   0.0000000   0.0000000   0.0000000   0.0000000   0.0000000   0.0000000
 NQMom=    0.0000000   0.0000000   0.0000000   0.0000000   0.0000000   0.0000000   0.0000000   0.0000000   0.0000000   0.0000000
 NMagM=    2.7928460   2.7928460   0.0000000   0.0000000   0.0000000   0.0000000   2.7928460   2.7928460   0.0000000   0.0000000
 AtZNuc=   1.0000000   1.0000000   6.0000000   6.0000000   6.0000000   6.0000000   1.0000000   1.0000000   6.0000000   6.0000000

  Atom        31          32          33          34          35          36          37          38          39          40
 IAtWgt=          12          12           1           1           1           1          12          12          12          12
 AtmWgt=  12.0000000  12.0000000   1.0078250   1.0078250   1.0078250   1.0078250  12.0000000  12.0000000  12.0000000  12.0000000
 NucSpn=           0           0           1           1           1           1           0           0           0           0
 AtZEff=   0.0000000   0.0000000   0.0000000   0.0000000   0.0000000   0.0000000   0.0000000   0.0000000   0.0000000   0.0000000
 NQMom=    0.0000000   0.0000000   0.0000000   0.0000000   0.0000000   0.0000000   0.0000000   0.0000000   0.0000000   0.0000000
 NMagM=    0.0000000   0.0000000   2.7928460   2.7928460   2.7928460   2.7928460   0.0000000   0.0000000   0.0000000   0.0000000
 AtZNuc=   6.0000000   6.0000000   1.0000000   1.0000000   1.0000000   1.0000000   6.0000000   6.0000000   6.0000000   6.0000000

  Atom        41          42          43          44          45          46          47          48          49          50
 IAtWgt=          12          12          12          12          12          12           1           1           1           1
 AtmWgt=  12.0000000  12.0000000  12.0000000  12.0000000  12.0000000  12.0000000   1.0078250   1.0078250   1.0078250   1.0078250
 NucSpn=           0           0           0           0           0           0           1           1           1           1
 AtZEff=   0.0000000   0.0000000   0.0000000   0.0000000   0.0000000   0.0000000   0.0000000   0.0000000   0.0000000   0.0000000
 NQMom=    0.0000000   0.0000000   0.0000000   0.0000000   0.0000000   0.0000000   0.0000000   0.0000000   0.0000000   0.0000000
 NMagM=    0.0000000   0.0000000   0.0000000   0.0000000   0.0000000   0.0000000   2.7928460   2.7928460   2.7928460   2.7928460
 AtZNuc=   6.0000000   6.0000000   6.0000000   6.0000000   6.0000000   6.0000000   1.0000000   1.0000000   1.0000000   1.0000000

  Atom        51          52          53          54          55          56          57          58          59          60
 IAtWgt=           1           1          12          12          12          12           1           1          12          12
 AtmWgt=   1.0078250   1.0078250  12.0000000  12.0000000  12.0000000  12.0000000   1.0078250   1.0078250  12.0000000  12.0000000
 NucSpn=           1           1           0           0           0           0           1           1           0           0
 AtZEff=   0.0000000   0.0000000   0.0000000   0.0000000   0.0000000   0.0000000   0.0000000   0.0000000   0.0000000   0.0000000
 NQMom=    0.0000000   0.0000000   0.0000000   0.0000000   0.0000000   0.0000000   0.0000000   0.0000000   0.0000000   0.0000000
 NMagM=    2.7928460   2.7928460   0.0000000   0.0000000   0.0000000   0.0000000   2.7928460   2.7928460   0.0000000   0.0000000
 AtZNuc=   1.0000000   1.0000000   6.0000000   6.0000000   6.0000000   6.0000000   1.0000000   1.0000000   6.0000000   6.0000000

  Atom        61          62          63          64          65          66          67          68          69          70
 IAtWgt=          12          12           1           1          12          12          12          12           1           1
 AtmWgt=  12.0000000  12.0000000   1.0078250   1.0078250  12.0000000  12.0000000  12.0000000  12.0000000   1.0078250   1.0078250
 NucSpn=           0           0           1           1           0           0           0           0           1           1
 AtZEff=   0.0000000   0.0000000   0.0000000   0.0000000   0.0000000   0.0000000   0.0000000   0.0000000   0.0000000   0.0000000
 NQMom=    0.0000000   0.0000000   0.0000000   0.0000000   0.0000000   0.0000000   0.0000000   0.0000000   0.0000000   0.0000000
 NMagM=    0.0000000   0.0000000   2.7928460   2.7928460   0.0000000   0.0000000   0.0000000   0.0000000   2.7928460   2.7928460
 AtZNuc=   6.0000000   6.0000000   1.0000000   1.0000000   6.0000000   6.0000000   6.0000000   6.0000000   1.0000000   1.0000000

  Atom        71          72
 IAtWgt=           1           1
 AtmWgt=   1.0078250   1.0078250
 NucSpn=           1           1
 AtZEff=   0.0000000   0.0000000
 NQMom=    0.0000000   0.0000000
 NMagM=    2.7928460   2.7928460
 AtZNuc=   1.0000000   1.0000000
 Leave Link  101 at Wed Sep 27 16:37:40 2023, MaxMem=  3221225472 cpu:               2.5 elap:               0.1
 (Enter /home/center/opt/aarch64/apps/gaussian16/c01/g16/l202.exe)
 Stoichiometry    C44H28
 Framework group  CS[SG(C4H4),X(C40H24)]
 Deg. of freedom   109
 Full point group                 CS      NOp   2
 Largest Abelian subgroup         CS      NOp   2
 Largest concise Abelian subgroup CS      NOp   2
                         Standard orientation:                         
 ---------------------------------------------------------------------
 Center     Atomic      Atomic             Coordinates (Angstroms)
 Number     Number       Type             X           Y           Z
 ---------------------------------------------------------------------
      1          6           0       -0.157051   -2.651650    3.671276
      2          6           0       -1.610716   -2.651650    3.671276
      3          6           0        0.524850   -2.651650    4.933593
      4          6           0       -2.292617   -2.651650    4.933593
      5          6           0       -0.167837   -2.651650    6.106357
      6          6           0       -1.599930   -2.651650    6.106357
      7          6           0        0.522507   -2.651650    2.463318
      8          6           0       -0.156287   -2.651650    1.224029
      9          6           0       -2.290274   -2.651650    2.463317
     10          6           0       -1.611480   -2.651650    1.224029
     11          1           0        1.609878   -2.651650    4.933260
     12          1           0        1.608225   -2.651650    2.463929
     13          1           0       -3.375991   -2.651650    2.463929
     14          1           0       -3.377645   -2.651650    4.933260
     15          1           0       -2.129179   -2.651650    7.052528
     16          1           0        0.361412   -2.651650    7.052528
     17          6           0        0.523002   -2.651650    0.000000
     18          6           0       -0.156287   -2.651650   -1.224029
     19          6           0       -2.290769   -2.651650    0.000000
     20          6           0       -1.611480   -2.651650   -1.224029
     21          1           0        1.608626   -2.651650    0.000000
     22          1           0       -3.376391   -2.651650    0.000000
     23          6           0        0.522507   -2.651650   -2.463318
     24          6           0       -0.157051   -2.651650   -3.671276
     25          6           0       -2.290274   -2.651650   -2.463317
     26          6           0       -1.610716   -2.651650   -3.671276
     27          1           0        1.608225   -2.651650   -2.463929
     28          1           0       -3.375991   -2.651650   -2.463929
     29          6           0        0.524850   -2.651650   -4.933593
     30          6           0       -0.167837   -2.651650   -6.106357
     31          6           0       -2.292617   -2.651650   -4.933593
     32          6           0       -1.599930   -2.651650   -6.106357
     33          1           0        1.609878   -2.651650   -4.933260
     34          1           0        0.361412   -2.651650   -7.052528
     35          1           0       -2.129179   -2.651650   -7.052528
     36          1           0       -3.377645   -2.651650   -4.933260
     37          6           0        0.883884    3.378482    3.671276
     38          6           0        0.883884    1.924818    3.671276
     39          6           0        0.883884    4.060384    4.933593
     40          6           0        0.883884    1.242917    4.933593
     41          6           0        0.883884    3.367697    6.106357
     42          6           0        0.883884    1.935603    6.106357
     43          6           0        0.883884    4.058041    2.463318
     44          6           0        0.883884    3.379247    1.224029
     45          6           0        0.883884    1.245260    2.463317
     46          6           0        0.883884    1.924054    1.224029
     47          1           0        0.883884    5.145412    4.933260
     48          1           0        0.883884    5.143759    2.463929
     49          1           0        0.883884    0.159543    2.463929
     50          1           0        0.883884    0.157889    4.933260
     51          1           0        0.883884    1.406355    7.052528
     52          1           0        0.883884    3.896945    7.052528
     53          6           0        0.883884    4.058536    0.000000
     54          6           0        0.883884    3.379247   -1.224029
     55          6           0        0.883884    1.244765    0.000000
     56          6           0        0.883884    1.924054   -1.224029
     57          1           0        0.883884    5.144159    0.000000
     58          1           0        0.883884    0.159143    0.000000
     59          6           0        0.883884    4.058041   -2.463318
     60          6           0        0.883884    3.378482   -3.671276
     61          6           0        0.883884    1.245260   -2.463317
     62          6           0        0.883884    1.924818   -3.671276
     63          1           0        0.883884    5.143759   -2.463929
     64          1           0        0.883884    0.159543   -2.463929
     65          6           0        0.883884    4.060384   -4.933593
     66          6           0        0.883884    3.367697   -6.106357
     67          6           0        0.883884    1.242917   -4.933593
     68          6           0        0.883884    1.935603   -6.106357
     69          1           0        0.883884    5.145412   -4.933260
     70          1           0        0.883884    3.896945   -7.052528
     71          1           0        0.883884    1.406355   -7.052528
     72          1           0        0.883884    0.157889   -4.933260
 ---------------------------------------------------------------------
 Rotational constants (GHZ):           0.0989119           0.0563744           0.0379694
 Leave Link  202 at Wed Sep 27 16:37:42 2023, MaxMem=  3221225472 cpu:               0.6 elap:               0.0
 (Enter /home/center/opt/aarch64/apps/gaussian16/c01/g16/l122.exe)
 Counterpoise: doing full-system calculation.
 Leave Link  122 at Wed Sep 27 16:37:44 2023, MaxMem=  3221225472 cpu:               0.2 elap:               0.0
 (Enter /home/center/opt/aarch64/apps/gaussian16/c01/g16/l301.exe)
 Standard basis: 6-311G(d,p) (5D, 7F)
 Ernie: Thresh=  0.10000D-02 Tol=  0.10000D-05 Strict=F.
 There are   528 symmetry adapted cartesian basis functions of A'  symmetry.
 There are   476 symmetry adapted cartesian basis functions of A"  symmetry.
 There are   504 symmetry adapted basis functions of A'  symmetry.
 There are   456 symmetry adapted basis functions of A"  symmetry.
   960 basis functions,  1632 primitive gaussians,  1004 cartesian basis functions
   146 alpha electrons      146 beta electrons
       nuclear repulsion energy      4572.3105787178 Hartrees.
 IExCor=  402 DFT=T Ex+Corr=B3LYP ExCW=0 ScaHFX=  0.200000
 ScaDFX=  0.800000  0.720000  1.000000  0.810000 ScalE2=  1.000000  1.000000
 IRadAn=      5 IRanWt=     -1 IRanGd=            0 ICorTp=0 IEmpDi=131
 NAtoms=   72 NActive=   72 NUniq=   40 SFac= 3.24D+00 NAtFMM=   60 NAOKFM=T Big=F
 Integral buffers will be    131072 words long.
 Raffenetti 2 integral format.
 Two-electron integral symmetry is turned on.
 R6Disp:  Grimme-D3 Dispersion energy=       -0.0768580274 Hartrees.
 Nuclear repulsion after empirical dispersion term =     4572.2337206904 Hartrees.
 Leave Link  301 at Wed Sep 27 16:37:47 2023, MaxMem=  3221225472 cpu:               2.2 elap:               0.1
 (Enter /home/center/opt/aarch64/apps/gaussian16/c01/g16/l302.exe)
 NPDir=0 NMtPBC=     1 NCelOv=     1 NCel=       1 NClECP=     1 NCelD=      1
         NCelK=      1 NCelE2=     1 NClLst=     1 CellRange=     0.0.
 One-electron integrals computed using PRISM.
 One-electron integral symmetry used in STVInt
 NBasis=   960 RedAO= T EigKep=  3.81D-05  NBF=   504   456
 NBsUse=   960 1.00D-06 EigRej= -1.00D+00 NBFU=   504   456
 Precomputing XC quadrature grid using
 IXCGrd= 4 IRadAn=           5 IRanWt=          -1 IRanGd=           0 AccXCQ= 0.00D+00.
 Generated NRdTot=       0 NPtTot=           0 NUsed=           0 NTot=          32
 NSgBfM=   989   989   989   989   989 MxSgAt=    72 MxSgA2=    72.
 Leave Link  302 at Wed Sep 27 16:37:51 2023, MaxMem=  3221225472 cpu:              64.0 elap:               1.9
 (Enter /home/center/opt/aarch64/apps/gaussian16/c01/g16/l303.exe)
 DipDrv:  MaxL=1.
 Leave Link  303 at Wed Sep 27 16:37:54 2023, MaxMem=  3221225472 cpu:              13.8 elap:               0.4
 (Enter /home/center/opt/aarch64/apps/gaussian16/c01/g16/l401.exe)
 ExpMin= 1.03D-01 ExpMax= 4.56D+03 ExpMxC= 6.82D+02 IAcc=3 IRadAn=         5 AccDes= 0.00D+00
 Harris functional with IExCor=  402 and IRadAn=       5 diagonalized for initial guess.
 HarFok:  IExCor=  402 AccDes= 0.00D+00 IRadAn=         5 IDoV= 1 UseB2=F ITyADJ=14
 ICtDFT=  3500011 ScaDFX=  1.000000  1.000000  1.000000  1.000000
 FoFCou: FMM=F IPFlag=           0 FMFlag=      100000 FMFlg1=        2000
         NFxFlg=           0 DoJE=T BraDBF=F KetDBF=T FulRan=T
         wScrn=  0.000000 ICntrl=       500 IOpCl=  0 I1Cent=   200000004 NGrid=           0
         NMat0=    1 NMatS0=      1 NMatT0=    0 NMatD0=    1 NMtDS0=    0 NMtDT0=    0
 Petite list used in FoFCou.
 Harris En= -1694.13744941189    
 JPrj=0 DoOrth=F DoCkMO=F.
 Initial guess orbital symmetries:
       Occupied  (A") (A') (A") (A') (A') (A") (A') (A") (A") (A')
                 (A") (A') (A") (A') (A") (A') (A") (A') (A') (A")
                 (A") (A') (A") (A') (A') (A') (A') (A') (A") (A')
                 (A") (A') (A") (A') (A") (A') (A") (A') (A") (A')
                 (A') (A") (A') (A") (A') (A') (A") (A") (A') (A')
                 (A") (A") (A') (A') (A') (A') (A") (A") (A') (A')
                 (A") (A") (A") (A") (A') (A') (A') (A') (A") (A")
                 (A") (A") (A') (A') (A") (A") (A') (A') (A') (A')
                 (A') (A') (A") (A") (A") (A") (A') (A") (A") (A')
                 (A') (A') (A") (A") (A') (A') (A') (A') (A") (A")
                 (A') (A') (A") (A") (A") (A") (A') (A') (A') (A')
                 (A") (A") (A') (A') (A") (A") (A') (A') (A") (A")
                 (A") (A") (A') (A') (A') (A') (A") (A") (A') (A')
                 (A") (A") (A') (A') (A") (A") (A') (A') (A') (A')
                 (A") (A") (A") (A") (A') (A')
       Virtual   (A') (A') (A") (A") (A") (A") (A') (A') (A') (A')
                 (A") (A") (A') (A') (A") (A") (A') (A") (A') (A')
                 (A') (A') (A") (A') (A") (A') (A") (A") (A') (A')
                 (A") (A') (A") (A") (A') (A") (A') (A") (A') (A')
                 (A") (A") (A') (A") (A') (A') (A") (A') (A') (A')
                 (A') (A") (A') (A") (A') (A') (A") (A') (A") (A')
                 (A") (A") (A") (A") (A') (A') (A") (A") (A") (A')
                 (A') (A") (A') (A') (A") (A') (A") (A") (A') (A")
                 (A') (A') (A') (A") (A') (A') (A") (A') (A") (A')
                 (A") (A') (A") (A") (A') (A') (A") (A') (A") (A")
                 (A') (A") (A') (A") (A") (A') (A') (A') (A") (A')
                 (A') (A') (A") (A') (A') (A") (A') (A") (A') (A")
                 (A") (A') (A") (A') (A") (A") (A') (A") (A') (A")
                 (A") (A') (A') (A") (A") (A') (A") (A') (A") (A')
                 (A') (A") (A') (A') (A') (A") (A') (A') (A') (A')
                 (A") (A") (A") (A') (A") (A') (A') (A") (A') (A')
                 (A") (A") (A") (A') (A") (A') (A") (A') (A') (A")
                 (A') (A") (A") (A') (A") (A') (A') (A") (A') (A")
                 (A') (A") (A') (A") (A') (A") (A') (A') (A') (A")
                 (A') (A") (A') (A") (A") (A') (A') (A') (A") (A")
                 (A') (A") (A') (A") (A') (A") (A') (A') (A') (A")
                 (A") (A') (A") (A') (A") (A") (A') (A") (A") (A')
                 (A') (A") (A") (A') (A") (A") (A') (A') (A') (A')
                 (A") (A') (A') (A") (A') (A") (A') (A") (A") (A')
                 (A") (A') (A") (A') (A") (A') (A") (A') (A') (A")
                 (A") (A') (A") (A') (A") (A') (A') (A") (A') (A")
                 (A') (A') (A") (A") (A') (A") (A") (A') (A") (A')
                 (A") (A") (A') (A") (A') (A') (A") (A') (A") (A")
                 (A') (A') (A") (A') (A') (A') (A") (A") (A") (A')
                 (A') (A') (A') (A") (A") (A") (A") (A') (A") (A")
                 (A") (A') (A') (A') (A') (A") (A') (A') (A") (A')
                 (A") (A") (A') (A") (A") (A') (A") (A') (A') (A')
                 (A") (A') (A") (A') (A') (A') (A") (A") (A") (A')
                 (A") (A") (A') (A") (A') (A") (A') (A') (A") (A')
                 (A") (A') (A') (A") (A') (A") (A") (A') (A') (A')
                 (A") (A') (A") (A") (A') (A') (A') (A") (A') (A")
                 (A') (A') (A') (A") (A") (A') (A") (A") (A") (A")
                 (A") (A') (A") (A") (A') (A') (A") (A') (A') (A')
                 (A") (A') (A') (A') (A") (A') (A") (A') (A') (A")
                 (A") (A') (A') (A') (A") (A") (A") (A') (A") (A')
                 (A") (A') (A") (A') (A") (A') (A') (A") (A") (A')
                 (A") (A') (A') (A') (A') (A") (A') (A") (A") (A')
                 (A') (A') (A') (A") (A") (A') (A') (A") (A') (A")
                 (A") (A") (A") (A') (A") (A') (A") (A") (A') (A')
                 (A") (A") (A') (A") (A') (A") (A') (A") (A') (A")
                 (A') (A') (A') (A") (A') (A") (A') (A') (A") (A")
                 (A') (A") (A") (A') (A') (A") (A") (A') (A") (A')
                 (A") (A') (A") (A') (A") (A') (A") (A') (A") (A')
                 (A") (A') (A') (A') (A") (A') (A") (A") (A") (A')
                 (A") (A') (A") (A") (A") (A") (A") (A') (A") (A')
                 (A') (A") (A') (A") (A') (A') (A') (A') (A") (A")
                 (A') (A') (A') (A') (A") (A") (A") (A') (A") (A')
                 (A") (A") (A') (A') (A") (A") (A') (A') (A") (A')
                 (A") (A') (A') (A") (A") (A') (A') (A") (A") (A')
                 (A") (A") (A') (A') (A') (A") (A") (A") (A') (A")
                 (A') (A") (A') (A") (A') (A") (A") (A') (A') (A')
                 (A") (A') (A") (A') (A') (A") (A') (A") (A') (A")
                 (A') (A") (A") (A') (A") (A') (A") (A') (A") (A')
                 (A') (A') (A') (A") (A') (A") (A") (A') (A') (A')
                 (A") (A') (A') (A") (A') (A") (A') (A") (A') (A")
                 (A') (A") (A") (A') (A") (A') (A") (A") (A') (A')
                 (A') (A") (A") (A') (A") (A') (A') (A") (A") (A')
                 (A') (A") (A") (A") (A') (A') (A") (A") (A') (A')
                 (A') (A') (A') (A') (A") (A') (A") (A") (A') (A")
                 (A") (A") (A") (A') (A") (A') (A") (A') (A') (A")
                 (A') (A') (A') (A') (A") (A') (A") (A') (A") (A')
                 (A') (A") (A") (A") (A') (A") (A') (A') (A") (A')
                 (A') (A") (A") (A') (A") (A') (A") (A") (A') (A')
                 (A") (A') (A") (A') (A') (A") (A') (A") (A") (A")
                 (A') (A') (A") (A') (A') (A") (A') (A") (A") (A')
                 (A') (A") (A') (A") (A") (A') (A') (A") (A") (A')
                 (A') (A") (A") (A") (A') (A') (A') (A') (A") (A")
                 (A') (A') (A") (A") (A') (A') (A") (A') (A') (A")
                 (A') (A") (A') (A") (A") (A') (A") (A') (A') (A")
                 (A') (A") (A') (A") (A') (A") (A') (A') (A') (A')
                 (A") (A') (A") (A') (A") (A") (A') (A') (A") (A")
                 (A") (A") (A') (A') (A") (A") (A') (A") (A') (A")
                 (A') (A') (A") (A") (A') (A') (A') (A') (A") (A")
                 (A") (A") (A') (A') (A") (A") (A') (A') (A') (A')
                 (A") (A") (A") (A") (A') (A') (A') (A') (A") (A")
                 (A') (A') (A") (A") (A') (A') (A") (A') (A") (A')
                 (A') (A") (A') (A")
 The electronic state of the initial guess is 1-A'.
 Leave Link  401 at Wed Sep 27 16:37:59 2023, MaxMem=  3221225472 cpu:             105.3 elap:               2.7
 (Enter /home/center/opt/aarch64/apps/gaussian16/c01/g16/l502.exe)
 Integral symmetry usage will be decided dynamically.
 Closed shell SCF:
 Using DIIS extrapolation, IDIIS=  1040.
 NGot=  3221225472 LenX=  3219153746 LenY=  3218144726
 Requested convergence on RMS density matrix=1.00D-08 within 128 cycles.
 Requested convergence on MAX density matrix=1.00D-06.
 Requested convergence on             energy=1.00D-06.
 No special actions if energy rises.
 Fock matrices will be formed incrementally for  20 cycles.
 Integral accuracy reduced to 1.0D-05 until final iterations.

 Cycle   1  Pass 0  IDiag  1:
 FoFJK:  IHMeth= 1 ICntrl=       0 DoSepK=F KAlg= 0 I1Cent=           0 FoldK=F
 IRaf= 540000000 NMat=       1 IRICut=       1 DoRegI=T DoRafI=F ISym2E= 1 IDoP0=0 IntGTp=1.
 FoFCou: FMM=F IPFlag=           0 FMFlag=      100000 FMFlg1=        2000
         NFxFlg=           0 DoJE=F BraDBF=F KetDBF=F FulRan=T
         wScrn=  0.000000 ICntrl=         0 IOpCl=  0 I1Cent=           0 NGrid=           0
         NMat0=    1 NMatS0=      1 NMatT0=    0 NMatD0=    1 NMtDS0=    0 NMtDT0=    0
 Petite list used in FoFCou.
 E= -1693.16495741609    
 DIIS: error= 4.56D-02 at cycle   1 NSaved=   1.
 NSaved= 1 IEnMin= 1 EnMin= -1693.16495741609     IErMin= 1 ErrMin= 4.56D-02
 ErrMax= 4.56D-02  0.00D+00 EMaxC= 1.00D-01 BMatC= 9.02D-01 BMatP= 9.02D-01
 IDIUse=3 WtCom= 5.44D-01 WtEn= 4.56D-01
 Coeff-Com:  0.100D+01
 Coeff-En:   0.100D+01
 Coeff:      0.100D+01
 Gap=     0.065 Goal=   None    Shift=    0.000
 GapD=    0.065 DampG=0.500 DampE=0.500 DampFc=0.2500 IDamp=-1.
 Damping current iteration by 2.50D-01
 RMSDP=1.73D-03 MaxDP=8.41D-02              OVMax= 1.58D-01

 Cycle   2  Pass 0  IDiag  1:
 RMSU=  4.17D-04    CP:  9.82D-01
 E= -1693.47568548061     Delta-E=       -0.310728064520 Rises=F Damp=T
 DIIS: error= 2.71D-02 at cycle   2 NSaved=   2.
 NSaved= 2 IEnMin= 2 EnMin= -1693.47568548061     IErMin= 2 ErrMin= 2.71D-02
 ErrMax= 2.71D-02  0.00D+00 EMaxC= 1.00D-01 BMatC= 2.99D-01 BMatP= 9.02D-01
 IDIUse=3 WtCom= 7.29D-01 WtEn= 2.71D-01
 Coeff-Com: -0.120D+01 0.220D+01
 Coeff-En:   0.000D+00 0.100D+01
 Coeff:     -0.877D+00 0.188D+01
 Gap=     0.065 Goal=   None    Shift=    0.000
 RMSDP=6.95D-04 MaxDP=3.34D-02 DE=-3.11D-01 OVMax= 7.97D-02

 Cycle   3  Pass 0  IDiag  1:
 RMSU=  4.47D-04    CP:  9.57D-01  2.22D+00
 E= -1694.04351807072     Delta-E=       -0.567832590114 Rises=F Damp=F
 DIIS: error= 4.97D-03 at cycle   3 NSaved=   3.
 NSaved= 3 IEnMin= 3 EnMin= -1694.04351807072     IErMin= 3 ErrMin= 4.97D-03
 ErrMax= 4.97D-03  0.00D+00 EMaxC= 1.00D-01 BMatC= 1.20D-02 BMatP= 2.99D-01
 IDIUse=3 WtCom= 9.50D-01 WtEn= 4.97D-02
 Coeff-Com: -0.241D+00 0.505D+00 0.736D+00
 Coeff-En:   0.000D+00 0.000D+00 0.100D+01
 Coeff:     -0.229D+00 0.480D+00 0.749D+00
 Gap=     0.070 Goal=   None    Shift=    0.000
 RMSDP=2.39D-04 MaxDP=1.23D-02 DE=-5.68D-01 OVMax= 8.29D-02

 Cycle   4  Pass 0  IDiag  1:
 RMSU=  2.04D-04    CP:  9.58D-01  2.13D+00  7.40D-01
 E= -1694.03967133009     Delta-E=        0.003846740636 Rises=F Damp=F
 DIIS: error= 7.40D-03 at cycle   4 NSaved=   4.
 NSaved= 4 IEnMin= 3 EnMin= -1694.04351807072     IErMin= 3 ErrMin= 4.97D-03
 ErrMax= 7.40D-03  0.00D+00 EMaxC= 1.00D-01 BMatC= 1.36D-02 BMatP= 1.20D-02
 IDIUse=3 WtCom= 1.04D-01 WtEn= 8.96D-01
 Coeff-Com: -0.332D-01 0.102D+00 0.524D+00 0.408D+00
 Coeff-En:   0.000D+00 0.000D+00 0.556D+00 0.444D+00
 Coeff:     -0.346D-02 0.106D-01 0.553D+00 0.440D+00
 Gap=     0.067 Goal=   None    Shift=    0.000
 RMSDP=1.48D-04 MaxDP=8.55D-03 DE= 3.85D-03 OVMax= 7.27D-02

 Cycle   5  Pass 0  IDiag  1:
 RMSU=  8.28D-05    CP:  9.59D-01  2.11D+00  8.06D-01  4.18D-01
 E= -1694.05464805236     Delta-E=       -0.014976722277 Rises=F Damp=F
 DIIS: error= 2.46D-03 at cycle   5 NSaved=   5.
 NSaved= 5 IEnMin= 5 EnMin= -1694.05464805236     IErMin= 5 ErrMin= 2.46D-03
 ErrMax= 2.46D-03  0.00D+00 EMaxC= 1.00D-01 BMatC= 1.18D-03 BMatP= 1.20D-02
 IDIUse=3 WtCom= 9.75D-01 WtEn= 2.46D-02
 Coeff-Com: -0.169D-01 0.360D-01 0.243D+00 0.254D+00 0.484D+00
 Coeff-En:   0.000D+00 0.000D+00 0.000D+00 0.532D-01 0.947D+00
 Coeff:     -0.165D-01 0.351D-01 0.237D+00 0.249D+00 0.496D+00
 Gap=     0.067 Goal=   None    Shift=    0.000
 RMSDP=5.04D-05 MaxDP=3.33D-03 DE=-1.50D-02 OVMax= 3.05D-02

 Cycle   6  Pass 0  IDiag  1:
 RMSU=  2.38D-05    CP:  9.58D-01  2.14D+00  8.17D-01  5.24D-01  5.52D-01
 E= -1694.05577527628     Delta-E=       -0.001127223915 Rises=F Damp=F
 DIIS: error= 1.35D-03 at cycle   6 NSaved=   6.
 NSaved= 6 IEnMin= 6 EnMin= -1694.05577527628     IErMin= 6 ErrMin= 1.35D-03
 ErrMax= 1.35D-03  0.00D+00 EMaxC= 1.00D-01 BMatC= 2.35D-04 BMatP= 1.18D-03
 IDIUse=3 WtCom= 9.86D-01 WtEn= 1.35D-02
 Coeff-Com: -0.634D-02 0.935D-02 0.968D-01 0.120D+00 0.353D+00 0.427D+00
 Coeff-En:   0.000D+00 0.000D+00 0.000D+00 0.000D+00 0.168D+00 0.832D+00
 Coeff:     -0.625D-02 0.922D-02 0.955D-01 0.118D+00 0.351D+00 0.433D+00
 Gap=     0.067 Goal=   None    Shift=    0.000
 RMSDP=1.89D-05 MaxDP=1.59D-03 DE=-1.13D-03 OVMax= 1.37D-02

 Cycle   7  Pass 0  IDiag  1:
 RMSU=  9.25D-06    CP:  9.58D-01  2.14D+00  8.21D-01  5.06D-01  6.25D-01
                    CP:  3.78D-01
 E= -1694.05603153094     Delta-E=       -0.000256254664 Rises=F Damp=F
 DIIS: error= 3.64D-04 at cycle   7 NSaved=   7.
 NSaved= 7 IEnMin= 7 EnMin= -1694.05603153094     IErMin= 7 ErrMin= 3.64D-04
 ErrMax= 3.64D-04  0.00D+00 EMaxC= 1.00D-01 BMatC= 2.01D-05 BMatP= 2.35D-04
 IDIUse=3 WtCom= 9.96D-01 WtEn= 3.64D-03
 Coeff-Com: -0.264D-02 0.321D-02 0.522D-01 0.660D-01 0.211D+00 0.299D+00
 Coeff-Com:  0.371D+00
 Coeff-En:   0.000D+00 0.000D+00 0.000D+00 0.000D+00 0.000D+00 0.371D-01
 Coeff-En:   0.963D+00
 Coeff:     -0.263D-02 0.320D-02 0.520D-01 0.658D-01 0.211D+00 0.298D+00
 Coeff:      0.373D+00
 Gap=     0.067 Goal=   None    Shift=    0.000
 RMSDP=5.68D-06 MaxDP=3.78D-04 DE=-2.56D-04 OVMax= 3.28D-03

 Initial convergence to 1.0D-05 achieved.  Increase integral accuracy.
 Cycle   8  Pass 1  IDiag  1:
 E= -1694.05571255858     Delta-E=        0.000318972359 Rises=F Damp=F
 DIIS: error= 6.77D-04 at cycle   1 NSaved=   1.
 NSaved= 1 IEnMin= 1 EnMin= -1694.05571255858     IErMin= 1 ErrMin= 6.77D-04
 ErrMax= 6.77D-04  0.00D+00 EMaxC= 1.00D-01 BMatC= 4.56D-05 BMatP= 4.56D-05
 IDIUse=3 WtCom= 9.93D-01 WtEn= 6.77D-03
 Coeff-Com:  0.100D+01
 Coeff-En:   0.100D+01
 Coeff:      0.100D+01
 Gap=     0.067 Goal=   None    Shift=    0.000
 RMSDP=5.68D-06 MaxDP=3.78D-04 DE= 3.19D-04 OVMax= 2.22D-03

 Cycle   9  Pass 1  IDiag  1:
 RMSU=  3.35D-04    CP:  9.97D-01
 E= -1694.05575200832     Delta-E=       -0.000039449736 Rises=F Damp=F
 DIIS: error= 1.97D-04 at cycle   2 NSaved=   2.
 NSaved= 2 IEnMin= 2 EnMin= -1694.05575200832     IErMin= 2 ErrMin= 1.97D-04
 ErrMax= 1.97D-04  0.00D+00 EMaxC= 1.00D-01 BMatC= 4.52D-06 BMatP= 4.56D-05
 IDIUse=3 WtCom= 9.98D-01 WtEn= 1.97D-03
 Coeff-Com:  0.112D+00 0.888D+00
 Coeff-En:   0.000D+00 0.100D+01
 Coeff:      0.112D+00 0.888D+00
 Gap=     0.067 Goal=   None    Shift=    0.000
 RMSDP=8.39D-06 MaxDP=5.45D-04 DE=-3.94D-05 OVMax= 4.92D-03

 Cycle  10  Pass 1  IDiag  1:
 RMSU=  7.92D-06    CP:  9.97D-01  1.01D+00
 E= -1694.05572608924     Delta-E=        0.000025919084 Rises=F Damp=F
 DIIS: error= 5.00D-04 at cycle   3 NSaved=   3.
 NSaved= 3 IEnMin= 2 EnMin= -1694.05575200832     IErMin= 2 ErrMin= 1.97D-04
 ErrMax= 5.00D-04  0.00D+00 EMaxC= 1.00D-01 BMatC= 2.49D-05 BMatP= 4.52D-06
 IDIUse=3 WtCom= 3.09D-01 WtEn= 6.91D-01
 Coeff-Com: -0.156D-02 0.704D+00 0.298D+00
 Coeff-En:   0.000D+00 0.779D+00 0.221D+00
 Coeff:     -0.481D-03 0.756D+00 0.245D+00
 Gap=     0.067 Goal=   None    Shift=    0.000
 RMSDP=4.63D-06 MaxDP=3.10D-04 DE= 2.59D-05 OVMax= 2.96D-03

 Cycle  11  Pass 1  IDiag  1:
 RMSU=  9.41D-07    CP:  9.97D-01  1.01D+00  4.31D-01
 E= -1694.05575634811     Delta-E=       -0.000030258875 Rises=F Damp=F
 DIIS: error= 7.95D-05 at cycle   4 NSaved=   4.
 NSaved= 4 IEnMin= 4 EnMin= -1694.05575634811     IErMin= 4 ErrMin= 7.95D-05
 ErrMax= 7.95D-05  0.00D+00 EMaxC= 1.00D-01 BMatC= 1.03D-06 BMatP= 4.52D-06
 IDIUse=1 WtCom= 1.00D+00 WtEn= 0.00D+00
 Coeff-Com: -0.382D-02 0.457D+00 0.112D+00 0.435D+00
 Coeff:     -0.382D-02 0.457D+00 0.112D+00 0.435D+00
 Gap=     0.067 Goal=   None    Shift=    0.000
 RMSDP=1.09D-06 MaxDP=6.91D-05 DE=-3.03D-05 OVMax= 5.73D-04

 Cycle  12  Pass 1  IDiag  1:
 RMSU=  4.15D-07    CP:  9.97D-01  1.01D+00  3.06D-01  7.92D-01
 E= -1694.05575753893     Delta-E=       -0.000001190819 Rises=F Damp=F
 DIIS: error= 6.27D-06 at cycle   5 NSaved=   5.
 NSaved= 5 IEnMin= 5 EnMin= -1694.05575753893     IErMin= 5 ErrMin= 6.27D-06
 ErrMax= 6.27D-06  0.00D+00 EMaxC= 1.00D-01 BMatC= 6.00D-09 BMatP= 1.03D-06
 IDIUse=1 WtCom= 1.00D+00 WtEn= 0.00D+00
 Coeff-Com: -0.237D-02 0.274D+00 0.644D-01 0.278D+00 0.386D+00
 Coeff:     -0.237D-02 0.274D+00 0.644D-01 0.278D+00 0.386D+00
 Gap=     0.067 Goal=   None    Shift=    0.000
 RMSDP=1.13D-07 MaxDP=5.87D-06 DE=-1.19D-06 OVMax= 4.43D-05

 Cycle  13  Pass 1  IDiag  1:
 RMSU=  9.96D-08    CP:  9.97D-01  1.01D+00  3.06D-01  8.11D-01  8.81D-01
 E= -1694.05575754636     Delta-E=       -0.000000007431 Rises=F Damp=F
 DIIS: error= 1.37D-06 at cycle   6 NSaved=   6.
 NSaved= 6 IEnMin= 6 EnMin= -1694.05575754636     IErMin= 6 ErrMin= 1.37D-06
 ErrMax= 1.37D-06  0.00D+00 EMaxC= 1.00D-01 BMatC= 5.80D-10 BMatP= 6.00D-09
 IDIUse=1 WtCom= 1.00D+00 WtEn= 0.00D+00
 Coeff-Com: -0.903D-03 0.101D+00 0.229D-01 0.107D+00 0.245D+00 0.525D+00
 Coeff:     -0.903D-03 0.101D+00 0.229D-01 0.107D+00 0.245D+00 0.525D+00
 Gap=     0.067 Goal=   None    Shift=    0.000
 RMSDP=2.68D-08 MaxDP=1.85D-06 DE=-7.43D-09 OVMax= 1.35D-05

 Cycle  14  Pass 1  IDiag  1:
 RMSU=  2.35D-08    CP:  9.97D-01  1.01D+00  3.06D-01  8.11D-01  8.96D-01
                    CP:  8.90D-01
 E= -1694.05575754692     Delta-E=       -0.000000000560 Rises=F Damp=F
 DIIS: error= 5.24D-07 at cycle   7 NSaved=   7.
 NSaved= 7 IEnMin= 7 EnMin= -1694.05575754692     IErMin= 7 ErrMin= 5.24D-07
 ErrMax= 5.24D-07  0.00D+00 EMaxC= 1.00D-01 BMatC= 5.45D-11 BMatP= 5.80D-10
 IDIUse=1 WtCom= 1.00D+00 WtEn= 0.00D+00
 Coeff-Com: -0.359D-03 0.395D-01 0.888D-02 0.429D-01 0.120D+00 0.303D+00
 Coeff-Com:  0.486D+00
 Coeff:     -0.359D-03 0.395D-01 0.888D-02 0.429D-01 0.120D+00 0.303D+00
 Coeff:      0.486D+00
 Gap=     0.067 Goal=   None    Shift=    0.000
 RMSDP=1.31D-08 MaxDP=7.85D-07 DE=-5.60D-10 OVMax= 7.85D-06

 Cycle  15  Pass 1  IDiag  1:
 RMSU=  9.32D-09    CP:  9.97D-01  1.01D+00  3.06D-01  8.12D-01  8.98D-01
                    CP:  9.09D-01  6.22D-01
 E= -1694.05575754696     Delta-E=       -0.000000000037 Rises=F Damp=F
 DIIS: error= 3.94D-07 at cycle   8 NSaved=   8.
 NSaved= 8 IEnMin= 8 EnMin= -1694.05575754696     IErMin= 8 ErrMin= 3.94D-07
 ErrMax= 3.94D-07  0.00D+00 EMaxC= 1.00D-01 BMatC= 2.36D-11 BMatP= 5.45D-11
 IDIUse=1 WtCom= 1.00D+00 WtEn= 0.00D+00
 Coeff-Com: -0.781D-05 0.297D-03 0.114D-04 0.106D-02 0.238D-01 0.789D-01
 Coeff-Com:  0.398D+00 0.498D+00
 Coeff:     -0.781D-05 0.297D-03 0.114D-04 0.106D-02 0.238D-01 0.789D-01
 Coeff:      0.398D+00 0.498D+00
 Gap=     0.067 Goal=   None    Shift=    0.000
 RMSDP=5.89D-09 MaxDP=3.48D-07 DE=-3.73D-11 OVMax= 3.04D-06

 SCF Done:  E(RB3LYP) =  -1694.05575755     A.U. after   15 cycles
            NFock= 15  Conv=0.59D-08     -V/T= 2.0044
 KE= 1.686692207762D+03 PE=-1.307492155440D+04 EE= 5.121939868400D+03
 Leave Link  502 at Wed Sep 27 16:39:44 2023, MaxMem=  3221225472 cpu:            3659.9 elap:             102.5
 (Enter /home/center/opt/aarch64/apps/gaussian16/c01/g16/l601.exe)
 Copying SCF densities to generalized density rwf, IOpCl= 0 IROHF=0.

 **********************************************************************

            Population analysis using the SCF Density.

 **********************************************************************

 Orbital symmetries:
       Occupied  (A") (A') (A') (A") (A") (A') (A") (A') (A') (A")
                 (A') (A') (A") (A') (A") (A') (A") (A') (A") (A')
                 (A") (A') (A") (A') (A") (A') (A') (A") (A') (A")
                 (A") (A') (A') (A") (A') (A") (A') (A") (A') (A')
                 (A") (A') (A") (A') (A') (A') (A") (A") (A') (A')
                 (A") (A") (A') (A') (A') (A") (A') (A") (A') (A')
                 (A") (A") (A") (A") (A') (A') (A') (A') (A") (A")
                 (A") (A') (A") (A") (A') (A') (A") (A') (A') (A')
                 (A') (A") (A") (A') (A") (A") (A') (A") (A') (A")
                 (A') (A') (A') (A") (A") (A') (A") (A") (A') (A')
                 (A') (A") (A') (A') (A') (A') (A") (A") (A') (A")
                 (A') (A') (A") (A") (A") (A") (A") (A") (A') (A')
                 (A') (A') (A') (A') (A") (A") (A') (A") (A") (A")
                 (A') (A") (A') (A') (A") (A') (A") (A') (A') (A')
                 (A") (A") (A") (A") (A') (A')
       Virtual   (A') (A') (A") (A") (A") (A") (A') (A') (A') (A")
                 (A') (A') (A") (A') (A") (A') (A') (A') (A") (A")
                 (A') (A') (A") (A") (A') (A") (A') (A") (A') (A")
                 (A") (A') (A") (A') (A') (A") (A") (A') (A") (A')
                 (A') (A') (A') (A") (A') (A") (A") (A") (A') (A")
                 (A') (A') (A') (A') (A') (A') (A') (A") (A") (A')
                 (A") (A") (A") (A") (A') (A') (A") (A") (A') (A")
                 (A') (A') (A") (A') (A") (A') (A") (A') (A") (A")
                 (A') (A') (A') (A') (A') (A") (A') (A") (A') (A")
                 (A") (A') (A') (A') (A") (A") (A") (A') (A") (A')
                 (A") (A') (A") (A') (A') (A") (A') (A") (A') (A")
                 (A") (A") (A') (A') (A') (A") (A") (A") (A') (A')
                 (A') (A") (A') (A') (A') (A') (A') (A") (A") (A")
                 (A') (A') (A') (A") (A") (A') (A') (A') (A") (A')
                 (A") (A') (A") (A') (A") (A') (A") (A") (A') (A")
                 (A") (A") (A') (A') (A") (A') (A") (A') (A') (A")
                 (A') (A') (A") (A") (A') (A') (A") (A') (A") (A")
                 (A") (A') (A") (A') (A') (A') (A') (A") (A") (A')
                 (A') (A") (A") (A') (A') (A") (A") (A') (A") (A')
                 (A") (A') (A") (A") (A') (A') (A") (A') (A") (A')
                 (A') (A") (A") (A') (A') (A") (A') (A') (A") (A')
                 (A') (A") (A") (A') (A") (A') (A') (A") (A") (A')
                 (A") (A") (A') (A") (A") (A') (A') (A') (A") (A')
                 (A') (A") (A") (A') (A") (A') (A") (A') (A') (A")
                 (A") (A') (A') (A") (A') (A") (A') (A") (A") (A')
                 (A') (A") (A') (A") (A") (A') (A') (A") (A") (A')
                 (A") (A') (A') (A") (A') (A') (A") (A') (A") (A")
                 (A') (A') (A") (A") (A') (A") (A') (A") (A") (A')
                 (A") (A') (A') (A') (A") (A") (A') (A") (A") (A')
                 (A") (A') (A') (A") (A") (A') (A') (A') (A") (A')
                 (A") (A") (A") (A") (A') (A") (A') (A') (A') (A')
                 (A') (A") (A') (A") (A') (A") (A") (A") (A') (A")
                 (A') (A") (A') (A') (A') (A") (A') (A") (A") (A')
                 (A") (A") (A') (A") (A') (A") (A') (A") (A') (A')
                 (A") (A') (A') (A') (A") (A") (A') (A') (A") (A")
                 (A') (A') (A") (A") (A') (A') (A') (A') (A') (A")
                 (A') (A") (A') (A") (A') (A") (A") (A") (A") (A")
                 (A') (A") (A") (A') (A') (A") (A') (A") (A') (A")
                 (A') (A') (A') (A") (A') (A") (A') (A') (A") (A')
                 (A') (A") (A') (A') (A") (A") (A") (A') (A') (A")
                 (A') (A") (A") (A') (A") (A') (A') (A') (A") (A")
                 (A') (A') (A") (A') (A") (A') (A") (A") (A') (A')
                 (A') (A') (A") (A') (A') (A") (A') (A") (A") (A')
                 (A") (A") (A") (A') (A") (A') (A") (A') (A') (A")
                 (A') (A") (A") (A') (A") (A") (A') (A") (A') (A')
                 (A") (A') (A") (A') (A") (A') (A') (A") (A") (A')
                 (A") (A") (A') (A') (A") (A") (A') (A') (A') (A')
                 (A") (A") (A') (A") (A") (A') (A") (A") (A') (A')
                 (A') (A") (A") (A') (A') (A') (A") (A") (A') (A")
                 (A") (A") (A') (A") (A") (A") (A") (A") (A') (A')
                 (A") (A') (A') (A') (A") (A') (A') (A') (A") (A")
                 (A') (A') (A') (A") (A') (A") (A') (A") (A') (A")
                 (A") (A") (A') (A") (A') (A') (A") (A') (A") (A")
                 (A') (A') (A") (A') (A") (A") (A") (A') (A') (A')
                 (A") (A") (A') (A') (A") (A') (A") (A") (A') (A")
                 (A') (A") (A') (A") (A") (A') (A') (A") (A') (A')
                 (A") (A') (A') (A") (A") (A') (A") (A') (A") (A')
                 (A") (A') (A') (A') (A') (A") (A') (A') (A") (A")
                 (A") (A") (A') (A') (A") (A') (A") (A") (A') (A')
                 (A") (A') (A") (A") (A') (A") (A') (A') (A") (A')
                 (A') (A') (A") (A") (A') (A") (A') (A") (A') (A")
                 (A') (A') (A') (A") (A') (A') (A') (A") (A') (A")
                 (A") (A") (A') (A") (A') (A") (A") (A") (A') (A")
                 (A') (A') (A') (A') (A') (A") (A') (A') (A") (A")
                 (A") (A') (A") (A") (A') (A") (A') (A") (A') (A')
                 (A") (A') (A') (A") (A') (A') (A') (A") (A') (A")
                 (A") (A") (A') (A') (A") (A") (A') (A') (A') (A")
                 (A') (A") (A") (A') (A") (A') (A") (A") (A') (A')
                 (A') (A') (A") (A") (A') (A") (A') (A") (A") (A")
                 (A') (A') (A") (A') (A') (A") (A') (A") (A') (A")
                 (A') (A') (A") (A") (A') (A") (A') (A") (A") (A')
                 (A') (A") (A") (A") (A') (A') (A') (A') (A") (A")
                 (A') (A') (A") (A') (A") (A') (A') (A") (A') (A")
                 (A") (A') (A') (A") (A") (A') (A') (A") (A') (A")
                 (A') (A") (A') (A") (A') (A') (A") (A') (A') (A')
                 (A") (A') (A") (A') (A") (A") (A') (A') (A") (A")
                 (A") (A') (A") (A") (A') (A") (A') (A") (A') (A")
                 (A') (A') (A") (A") (A') (A') (A') (A') (A") (A")
                 (A") (A") (A') (A') (A") (A') (A") (A') (A') (A')
                 (A") (A") (A") (A") (A') (A') (A') (A") (A') (A")
                 (A') (A') (A") (A') (A") (A") (A') (A') (A") (A')
                 (A') (A") (A') (A")
 The electronic state is 1-A'.
 Alpha  occ. eigenvalues --  -10.19552 -10.19552 -10.19473 -10.19472 -10.19467
 Alpha  occ. eigenvalues --  -10.19466 -10.19359 -10.19359 -10.18579 -10.18514
 Alpha  occ. eigenvalues --  -10.18514 -10.18514 -10.18483 -10.18483 -10.18464
 Alpha  occ. eigenvalues --  -10.18464 -10.18386 -10.18386 -10.18363 -10.18363
 Alpha  occ. eigenvalues --  -10.18265 -10.18265 -10.18153 -10.18153 -10.18104
 Alpha  occ. eigenvalues --  -10.18104 -10.18071 -10.18071 -10.18000 -10.18000
 Alpha  occ. eigenvalues --  -10.17219 -10.17219 -10.17165 -10.17156 -10.17156
 Alpha  occ. eigenvalues --  -10.17149 -10.17149 -10.17081 -10.17081 -10.17055
 Alpha  occ. eigenvalues --  -10.17022 -10.17022 -10.16961 -10.16961  -0.89936
 Alpha  occ. eigenvalues --   -0.88557  -0.88444  -0.87105  -0.86121  -0.84799
 Alpha  occ. eigenvalues --   -0.82983  -0.81671  -0.80414  -0.79087  -0.79018
 Alpha  occ. eigenvalues --   -0.78892  -0.77780  -0.77536  -0.76562  -0.75223
 Alpha  occ. eigenvalues --   -0.74821  -0.73508  -0.73469  -0.72138  -0.69769
 Alpha  occ. eigenvalues --   -0.68425  -0.67908  -0.66593  -0.63297  -0.62923
 Alpha  occ. eigenvalues --   -0.61969  -0.61683  -0.61631  -0.60527  -0.60290
 Alpha  occ. eigenvalues --   -0.59856  -0.59163  -0.58524  -0.58244  -0.56943
 Alpha  occ. eigenvalues --   -0.53263  -0.53125  -0.52842  -0.51963  -0.51797
 Alpha  occ. eigenvalues --   -0.51552  -0.50201  -0.49060  -0.48876  -0.47791
 Alpha  occ. eigenvalues --   -0.47700  -0.46671  -0.46414  -0.46133  -0.46036
 Alpha  occ. eigenvalues --   -0.45371  -0.44837  -0.44723  -0.44477  -0.43717
 Alpha  occ. eigenvalues --   -0.43199  -0.43114  -0.42450  -0.42367  -0.42117
 Alpha  occ. eigenvalues --   -0.41912  -0.41806  -0.41265  -0.41009  -0.40947
 Alpha  occ. eigenvalues --   -0.40788  -0.40620  -0.40161  -0.39915  -0.39665
 Alpha  occ. eigenvalues --   -0.38838  -0.38734  -0.37449  -0.37331  -0.36873
 Alpha  occ. eigenvalues --   -0.36090  -0.36002  -0.35634  -0.34725  -0.34657
 Alpha  occ. eigenvalues --   -0.34344  -0.33611  -0.33460  -0.33336  -0.33078
 Alpha  occ. eigenvalues --   -0.32811  -0.32209  -0.31562  -0.30835  -0.30125
 Alpha  occ. eigenvalues --   -0.28966  -0.28911  -0.27693  -0.27170  -0.25878
 Alpha  occ. eigenvalues --   -0.24947  -0.23637  -0.23162  -0.21837  -0.18467
 Alpha  occ. eigenvalues --   -0.17090
 Alpha virt. eigenvalues --   -0.10375  -0.08995  -0.05077  -0.03727  -0.03367
 Alpha virt. eigenvalues --   -0.02020  -0.00804   0.00585   0.01458   0.01573
 Alpha virt. eigenvalues --    0.02188   0.02781   0.03083   0.03696   0.03934
 Alpha virt. eigenvalues --    0.03998   0.04532   0.05385   0.05582   0.05915
 Alpha virt. eigenvalues --    0.06036   0.06570   0.07210   0.07662   0.07710
 Alpha virt. eigenvalues --    0.07985   0.08785   0.09014   0.09393   0.09461
 Alpha virt. eigenvalues --    0.10402   0.10743   0.10968   0.10975   0.11482
 Alpha virt. eigenvalues --    0.12291   0.12786   0.13065   0.13279   0.14150
 Alpha virt. eigenvalues --    0.14320   0.14892   0.15851   0.15964   0.17731
 Alpha virt. eigenvalues --    0.17739   0.18222   0.18901   0.18995   0.19655
 Alpha virt. eigenvalues --    0.19815   0.20368   0.22305   0.22509   0.23705
 Alpha virt. eigenvalues --    0.23879   0.24002   0.24010   0.25083   0.25261
 Alpha virt. eigenvalues --    0.25837   0.26206   0.26974   0.27144   0.27610
 Alpha virt. eigenvalues --    0.27764   0.28162   0.28335   0.28706   0.28824
 Alpha virt. eigenvalues --    0.28960   0.29268   0.29823   0.30069   0.30156
 Alpha virt. eigenvalues --    0.30338   0.30694   0.31335   0.31391   0.31975
 Alpha virt. eigenvalues --    0.32674   0.34231   0.34361   0.35078   0.35598
 Alpha virt. eigenvalues --    0.35825   0.35905   0.36051   0.36834   0.36853
 Alpha virt. eigenvalues --    0.37073   0.37349   0.37536   0.37821   0.38032
 Alpha virt. eigenvalues --    0.38192   0.38394   0.38516   0.38704   0.39022
 Alpha virt. eigenvalues --    0.39275   0.39519   0.39523   0.39830   0.40205
 Alpha virt. eigenvalues --    0.40552   0.40579   0.40724   0.41010   0.41403
 Alpha virt. eigenvalues --    0.41770   0.42191   0.42212   0.42302   0.42364
 Alpha virt. eigenvalues --    0.42518   0.42675   0.42915   0.43143   0.43358
 Alpha virt. eigenvalues --    0.43562   0.44039   0.44529   0.44742   0.45001
 Alpha virt. eigenvalues --    0.45215   0.45612   0.45680   0.45832   0.45909
 Alpha virt. eigenvalues --    0.45997   0.46171   0.46426   0.46534   0.46734
 Alpha virt. eigenvalues --    0.46831   0.46909   0.47190   0.47438   0.47756
 Alpha virt. eigenvalues --    0.47996   0.48688   0.48714   0.48862   0.49017
 Alpha virt. eigenvalues --    0.49212   0.49498   0.49694   0.50127   0.50166
 Alpha virt. eigenvalues --    0.50607   0.50766   0.51705   0.51828   0.52085
 Alpha virt. eigenvalues --    0.52172   0.52562   0.52660   0.52902   0.54146
 Alpha virt. eigenvalues --    0.54476   0.55077   0.55188   0.55701   0.55859
 Alpha virt. eigenvalues --    0.56596   0.56749   0.57336   0.57367   0.57901
 Alpha virt. eigenvalues --    0.58352   0.58688   0.59381   0.59599   0.60050
 Alpha virt. eigenvalues --    0.60376   0.60519   0.61347   0.61422   0.61466
 Alpha virt. eigenvalues --    0.61799   0.62113   0.62340   0.62386   0.62581
 Alpha virt. eigenvalues --    0.62665   0.63170   0.63389   0.63553   0.63714
 Alpha virt. eigenvalues --    0.63939   0.64147   0.64512   0.65110   0.65228
 Alpha virt. eigenvalues --    0.65740   0.65867   0.65957   0.66616   0.66913
 Alpha virt. eigenvalues --    0.67605   0.67931   0.69417   0.69493   0.70244
 Alpha virt. eigenvalues --    0.70751   0.70804   0.71783   0.71906   0.72175
 Alpha virt. eigenvalues --    0.72818   0.72874   0.73672   0.73744   0.73971
 Alpha virt. eigenvalues --    0.74818   0.74959   0.75088   0.75617   0.76413
 Alpha virt. eigenvalues --    0.76735   0.77040   0.77440   0.77547   0.78292
 Alpha virt. eigenvalues --    0.78826   0.79180   0.79399   0.79602   0.80254
 Alpha virt. eigenvalues --    0.80798   0.80990   0.81375   0.81395   0.82433
 Alpha virt. eigenvalues --    0.82545   0.82756   0.83191   0.83340   0.83622
 Alpha virt. eigenvalues --    0.84215   0.84220   0.84999   0.85492   0.86311
 Alpha virt. eigenvalues --    0.86395   0.87752   0.87914   0.88697   0.89449
 Alpha virt. eigenvalues --    0.90143   0.90170   0.90724   0.90816   0.91221
 Alpha virt. eigenvalues --    0.91783   0.92277   0.92398   0.93395   0.94360
 Alpha virt. eigenvalues --    0.94680   0.94686   0.95610   0.95617   0.95861
 Alpha virt. eigenvalues --    0.96093   0.96160   0.96665   0.97886   0.97937
 Alpha virt. eigenvalues --    0.98121   0.99093   0.99163   0.99313   1.00473
 Alpha virt. eigenvalues --    1.00692   1.01524   1.01635   1.01943   1.02482
 Alpha virt. eigenvalues --    1.02862   1.03434   1.03587   1.04208   1.04361
 Alpha virt. eigenvalues --    1.04665   1.04688   1.05053   1.05208   1.05338
 Alpha virt. eigenvalues --    1.05936   1.06155   1.06191   1.06312   1.06850
 Alpha virt. eigenvalues --    1.07035   1.07700   1.08193   1.08225   1.08329
 Alpha virt. eigenvalues --    1.08464   1.09312   1.09650   1.09973   1.10728
 Alpha virt. eigenvalues --    1.10835   1.10979   1.11631   1.12492   1.12902
 Alpha virt. eigenvalues --    1.12984   1.13209   1.13953   1.13978   1.14074
 Alpha virt. eigenvalues --    1.14749   1.15272   1.16184   1.16219   1.16892
 Alpha virt. eigenvalues --    1.16911   1.18219   1.18338   1.19389   1.20160
 Alpha virt. eigenvalues --    1.21125   1.21821   1.22817   1.23577   1.24324
 Alpha virt. eigenvalues --    1.24340   1.25756   1.27803   1.28385   1.30302
 Alpha virt. eigenvalues --    1.30634   1.30891   1.32600   1.32674   1.33155
 Alpha virt. eigenvalues --    1.34144   1.35010   1.35211   1.36671   1.37475
 Alpha virt. eigenvalues --    1.38827   1.39041   1.39766   1.39946   1.40596
 Alpha virt. eigenvalues --    1.40635   1.40803   1.41067   1.41637   1.42106
 Alpha virt. eigenvalues --    1.42740   1.43825   1.44029   1.44234   1.45188
 Alpha virt. eigenvalues --    1.45307   1.45960   1.46618   1.46853   1.47252
 Alpha virt. eigenvalues --    1.47434   1.47824   1.48266   1.48851   1.49433
 Alpha virt. eigenvalues --    1.49561   1.49824   1.50072   1.50196   1.50657
 Alpha virt. eigenvalues --    1.50675   1.51353   1.51557   1.52635   1.53008
 Alpha virt. eigenvalues --    1.53111   1.53909   1.54305   1.54588   1.54787
 Alpha virt. eigenvalues --    1.54970   1.55020   1.55157   1.55310   1.55676
 Alpha virt. eigenvalues --    1.57347   1.57521   1.57687   1.57734   1.57979
 Alpha virt. eigenvalues --    1.59336   1.60113   1.60551   1.60753   1.60826
 Alpha virt. eigenvalues --    1.61223   1.61691   1.62507   1.63097   1.64003
 Alpha virt. eigenvalues --    1.64691   1.65341   1.66346   1.66568   1.67583
 Alpha virt. eigenvalues --    1.69179   1.69321   1.69392   1.70622   1.70644
 Alpha virt. eigenvalues --    1.70669   1.70976   1.71892   1.71994   1.72086
 Alpha virt. eigenvalues --    1.72799   1.73213   1.73301   1.73551   1.73681
 Alpha virt. eigenvalues --    1.73813   1.74050   1.74516   1.75084   1.75749
 Alpha virt. eigenvalues --    1.76984   1.78227   1.78759   1.79410   1.79738
 Alpha virt. eigenvalues --    1.80022   1.80099   1.80552   1.80711   1.81333
 Alpha virt. eigenvalues --    1.81662   1.81910   1.82314   1.82560   1.82790
 Alpha virt. eigenvalues --    1.83063   1.84530   1.84742   1.85031   1.85414
 Alpha virt. eigenvalues --    1.85442   1.86428   1.87065   1.87315   1.87758
 Alpha virt. eigenvalues --    1.87952   1.88196   1.88380   1.88443   1.88531
 Alpha virt. eigenvalues --    1.88827   1.89089   1.89120   1.90634   1.91146
 Alpha virt. eigenvalues --    1.91202   1.91323   1.91385   1.92227   1.92475
 Alpha virt. eigenvalues --    1.92648   1.93033   1.93405   1.93627   1.93763
 Alpha virt. eigenvalues --    1.93895   1.94234   1.94436   1.94953   1.95072
 Alpha virt. eigenvalues --    1.95605   1.96031   1.96164   1.96458   1.97695
 Alpha virt. eigenvalues --    1.98479   1.99700   2.00435   2.00450   2.00702
 Alpha virt. eigenvalues --    2.01005   2.01158   2.02489   2.02515   2.03928
 Alpha virt. eigenvalues --    2.05462   2.05658   2.07551   2.07789   2.08836
 Alpha virt. eigenvalues --    2.09010   2.09344   2.10461   2.10724   2.11026
 Alpha virt. eigenvalues --    2.11289   2.12005   2.12973   2.13816   2.14977
 Alpha virt. eigenvalues --    2.15324   2.16195   2.16541   2.16702   2.17157
 Alpha virt. eigenvalues --    2.17926   2.19565   2.20405   2.21209   2.21374
 Alpha virt. eigenvalues --    2.22487   2.22601   2.22630   2.23084   2.23604
 Alpha virt. eigenvalues --    2.24271   2.25065   2.25316   2.26379   2.26758
 Alpha virt. eigenvalues --    2.26879   2.27614   2.27686   2.27994   2.28037
 Alpha virt. eigenvalues --    2.28210   2.29494   2.29965   2.30063   2.31683
 Alpha virt. eigenvalues --    2.33431   2.35013   2.35317   2.36533   2.38840
 Alpha virt. eigenvalues --    2.38979   2.40096   2.40361   2.40626   2.41362
 Alpha virt. eigenvalues --    2.42620   2.43021   2.45149   2.45263   2.45440
 Alpha virt. eigenvalues --    2.45503   2.46047   2.46567   2.46790   2.49589
 Alpha virt. eigenvalues --    2.50015   2.51716   2.52266   2.53423   2.53661
 Alpha virt. eigenvalues --    2.54335   2.54931   2.55352   2.55871   2.56524
 Alpha virt. eigenvalues --    2.56971   2.58139   2.58396   2.58647   2.59429
 Alpha virt. eigenvalues --    2.59478   2.60268   2.60600   2.60767   2.61129
 Alpha virt. eigenvalues --    2.61360   2.61701   2.61814   2.62044   2.62752
 Alpha virt. eigenvalues --    2.63194   2.64007   2.64190   2.64288   2.64545
 Alpha virt. eigenvalues --    2.64850   2.65435   2.65762   2.65846   2.66780
 Alpha virt. eigenvalues --    2.67333   2.67479   2.67693   2.68071   2.68181
 Alpha virt. eigenvalues --    2.68417   2.68914   2.69160   2.69364   2.69609
 Alpha virt. eigenvalues --    2.69880   2.69942   2.70433   2.70697   2.71150
 Alpha virt. eigenvalues --    2.71262   2.71314   2.71648   2.72145   2.73244
 Alpha virt. eigenvalues --    2.73646   2.74315   2.74669   2.75168   2.75597
 Alpha virt. eigenvalues --    2.76102   2.76981   2.77102   2.78266   2.78591
 Alpha virt. eigenvalues --    2.78612   2.79207   2.79352   2.79385   2.80016
 Alpha virt. eigenvalues --    2.80111   2.81096   2.81540   2.81913   2.83356
 Alpha virt. eigenvalues --    2.83531   2.83666   2.85731   2.86153   2.86225
 Alpha virt. eigenvalues --    2.86767   2.86929   2.87448   2.88367   2.89356
 Alpha virt. eigenvalues --    2.89375   2.90484   2.91060   2.91644   2.92167
 Alpha virt. eigenvalues --    2.92790   2.93006   2.93393   2.94991   2.95231
 Alpha virt. eigenvalues --    2.95554   2.95872   2.96050   2.97654   2.97857
 Alpha virt. eigenvalues --    2.98738   3.00354   3.00728   3.03811   3.03907
 Alpha virt. eigenvalues --    3.04835   3.05745   3.07015   3.07607   3.07657
 Alpha virt. eigenvalues --    3.08878   3.09434   3.15697   3.15867   3.16223
 Alpha virt. eigenvalues --    3.17115   3.17439   3.17900   3.19728   3.20016
 Alpha virt. eigenvalues --    3.20981   3.21333   3.23183   3.24738   3.29258
 Alpha virt. eigenvalues --    3.29746   3.30210   3.30669   3.31580   3.32906
 Alpha virt. eigenvalues --    3.35237   3.35613   3.36182   3.36396   3.36895
 Alpha virt. eigenvalues --    3.37152   3.37158   3.37947   3.38278   3.39041
 Alpha virt. eigenvalues --    3.39848   3.41018   3.41310   3.43302   3.45124
 Alpha virt. eigenvalues --    3.45239   3.45898   3.46597   3.48397   3.48479
 Alpha virt. eigenvalues --    3.49715   3.50060   3.50635   3.51366   3.53129
 Alpha virt. eigenvalues --    3.54380   3.57263   3.58480   3.58608   3.59659
 Alpha virt. eigenvalues --    3.61568   3.62629   3.62664   3.63391   3.63669
 Alpha virt. eigenvalues --    3.64171   3.65667   3.66210   3.66854   3.67335
 Alpha virt. eigenvalues --    3.67860   3.68078   3.69347   3.69481   4.00099
 Alpha virt. eigenvalues --    4.00155   4.01448   4.01667   4.01836   4.01881
 Alpha virt. eigenvalues --    4.02820   4.03145   4.15739   4.16273   4.17270
 Alpha virt. eigenvalues --    4.18062   4.18617   4.19861   4.21113   4.22132
 Alpha virt. eigenvalues --    4.22198   4.23011   4.23781   4.25382   4.25391
 Alpha virt. eigenvalues --    4.28063   4.38036   4.40312   4.61892   4.63928
 Alpha virt. eigenvalues --    4.78632   4.79230   4.79995   4.80375   4.80808
 Alpha virt. eigenvalues --    4.81879   4.82002   4.82443   4.84142   4.84575
 Alpha virt. eigenvalues --   23.39160  23.41193  23.54732  23.56484  23.69414
 Alpha virt. eigenvalues --   23.70823  23.77311  23.78600  23.80590  23.81312
 Alpha virt. eigenvalues --   23.81894  23.82867  23.86006  23.87170  23.88937
 Alpha virt. eigenvalues --   23.89242  23.90164  23.90218  23.92049  23.93510
 Alpha virt. eigenvalues --   23.97028  23.97953  23.98489  23.99233  24.08606
 Alpha virt. eigenvalues --   24.09387  24.09933  24.10018  24.10766  24.11370
 Alpha virt. eigenvalues --   24.11816  24.13257  24.13272  24.13828  24.14816
 Alpha virt. eigenvalues --   24.15254  24.15287  24.15538  24.16513  24.16547
 Alpha virt. eigenvalues --   24.19934  24.19979  24.21364  24.21416
          Condensed to atoms (all electrons):
 Mulliken charges:
               1
     1  C   -0.031345
     2  C   -0.058627
     3  C   -0.093354
     4  C   -0.049601
     5  C   -0.084255
     6  C   -0.088208
     7  C   -0.071604
     8  C   -0.019811
     9  C   -0.002161
    10  C   -0.058203
    11  H    0.086946
    12  H    0.078007
    13  H    0.077802
    14  H    0.084708
    15  H    0.097034
    16  H    0.097916
    17  C   -0.074931
    18  C   -0.019811
    19  C   -0.006435
    20  C   -0.058203
    21  H    0.076800
    22  H    0.076473
    23  C   -0.071604
    24  C   -0.031345
    25  C   -0.002161
    26  C   -0.058627
    27  H    0.078007
    28  H    0.077802
    29  C   -0.093354
    30  C   -0.084255
    31  C   -0.049601
    32  C   -0.088208
    33  H    0.086946
    34  H    0.097916
    35  H    0.097034
    36  H    0.084708
    37  C   -0.027496
    38  C   -0.110652
    39  C   -0.062227
    40  C   -0.052715
    41  C   -0.087005
    42  C   -0.115907
    43  C   -0.029300
    44  C   -0.015623
    45  C   -0.014052
    46  C   -0.115365
    47  H    0.079077
    48  H    0.070881
    49  H    0.117180
    50  H    0.116861
    51  H    0.087192
    52  H    0.091620
    53  C   -0.033315
    54  C   -0.015623
    55  C   -0.019010
    56  C   -0.115365
    57  H    0.069495
    58  H    0.115496
    59  C   -0.029300
    60  C   -0.027496
    61  C   -0.014052
    62  C   -0.110652
    63  H    0.070881
    64  H    0.117180
    65  C   -0.062227
    66  C   -0.087005
    67  C   -0.052715
    68  C   -0.115907
    69  H    0.079077
    70  H    0.091620
    71  H    0.087192
    72  H    0.116861
 Sum of Mulliken charges =   0.00000
 Mulliken charges with hydrogens summed into heavy atoms:
               1
     1  C   -0.031345
     2  C   -0.058627
     3  C   -0.006408
     4  C    0.035108
     5  C    0.013661
     6  C    0.008826
     7  C    0.006402
     8  C   -0.019811
     9  C    0.075641
    10  C   -0.058203
    17  C    0.001870
    18  C   -0.019811
    19  C    0.070038
    20  C   -0.058203
    23  C    0.006402
    24  C   -0.031345
    25  C    0.075641
    26  C   -0.058627
    29  C   -0.006408
    30  C    0.013661
    31  C    0.035108
    32  C    0.008826
    37  C   -0.027496
    38  C   -0.110652
    39  C    0.016850
    40  C    0.064146
    41  C    0.004615
    42  C   -0.028715
    43  C    0.041580
    44  C   -0.015623
    45  C    0.103128
    46  C   -0.115365
    53  C    0.036180
    54  C   -0.015623
    55  C    0.096487
    56  C   -0.115365
    59  C    0.041580
    60  C   -0.027496
    61  C    0.103128
    62  C   -0.110652
    65  C    0.016850
    66  C    0.004615
    67  C    0.064146
    68  C   -0.028715
         Mulliken charges condensed to fragments:
      1      0.002396
      2     -0.002396
 Electronic spatial extent (au):  <R**2>=          26744.1819
 Charge=              0.0000 electrons
 Dipole moment (field-independent basis, Debye):
    X=             -0.8577    Y=             -1.2610    Z=              0.0000  Tot=              1.5250
 Quadrupole moment (field-independent basis, Debye-Ang):
   XX=           -246.0092   YY=           -248.8449   ZZ=           -219.2242
   XY=              0.4211   XZ=              0.0000   YZ=              0.0000
 Traceless Quadrupole moment (field-independent basis, Debye-Ang):
   XX=             -7.9831   YY=            -10.8188   ZZ=             18.8019
   XY=              0.4211   XZ=              0.0000   YZ=              0.0000
 Octapole moment (field-independent basis, Debye-Ang**2):
  XXX=            -73.8621  YYY=            181.9033  ZZZ=              0.0000  XYY=             15.7368
  XXY=            -73.6811  XXZ=              0.0000  XZZ=            -15.2515  YZZ=            -29.7406
  YYZ=              0.0000  XYZ=              0.0000
 Hexadecapole moment (field-independent basis, Debye-Ang**3):
 XXXX=          -2413.9158 YYYY=         -11749.3650 ZZZZ=         -21002.5661 XXXY=          -1728.8490
 XXXZ=              0.0000 YYYX=          -1742.4024 YYYZ=              0.0000 ZZZX=              0.0000
 ZZZY=              0.0000 XXYY=          -2438.2361 XXZZ=          -4334.5407 YYZZ=          -5736.9711
 XXYZ=              0.0000 YYXZ=              0.0000 ZZXY=           -509.9246
 N-N= 4.572233720690D+03 E-N=-1.307492156421D+04  KE= 1.686692207762D+03
 Symmetry A'   KE= 9.134243365053D+02
 Symmetry A"   KE= 7.732678712568D+02
 No NMR shielding tensors so no spin-rotation constants.
 Leave Link  601 at Wed Sep 27 16:39:47 2023, MaxMem=  3221225472 cpu:              50.5 elap:               1.4
 (Enter /home/center/opt/aarch64/apps/gaussian16/c01/g16/l122.exe)
 CPIOFr:  IOpCl= 0 IRwI=-1 IRwCP=  731 ICalc= -1 LCPTot=     1419224 Len1MO=     3708034 IndFrg=     1419224
 CPIOFr:  IOpCl= 0 IRwI=-1 IRwCP=  731 ICalc=  0 LCPTot=     1419224 Len1MO=     3708034 IndFrg=     5127258
 Counterpoise: doing calculation for fragment   1 using the basis set of the full-system, NewBq=T
 Leave Link  122 at Wed Sep 27 16:39:50 2023, MaxMem=  3221225472 cpu:               8.7 elap:               0.5
 (Enter /home/center/opt/aarch64/apps/gaussian16/c01/g16/l301.exe)
 Basis read from rwf:  (5D, 7F)
 No pseudopotential information found on rwf file.
 There are   528 symmetry adapted cartesian basis functions of A'  symmetry.
 There are   476 symmetry adapted cartesian basis functions of A"  symmetry.
 There are   504 symmetry adapted basis functions of A'  symmetry.
 There are   456 symmetry adapted basis functions of A"  symmetry.
   960 basis functions,  1632 primitive gaussians,  1004 cartesian basis functions
    73 alpha electrons       73 beta electrons
       nuclear repulsion energy      1494.3575061050 Hartrees.
 IExCor=  402 DFT=T Ex+Corr=B3LYP ExCW=0 ScaHFX=  0.200000
 ScaDFX=  0.800000  0.720000  1.000000  0.810000 ScalE2=  1.000000  1.000000
 IRadAn=      5 IRanWt=     -1 IRanGd=            0 ICorTp=0 IEmpDi=131
 NAtoms=   72 NActive=   72 NUniq=   40 SFac= 3.24D+00 NAtFMM=   60 NAOKFM=T Big=F
 Integral buffers will be    131072 words long.
 Raffenetti 2 integral format.
 Two-electron integral symmetry is turned on.
 R6Disp:  Grimme-D3 Dispersion energy=       -0.0303938888 Hartrees.
 Nuclear repulsion after empirical dispersion term =     1494.3271122161 Hartrees.
 No density basis found on file    718.
 Leave Link  301 at Wed Sep 27 16:39:52 2023, MaxMem=  3221225472 cpu:               2.4 elap:               0.1
 (Enter /home/center/opt/aarch64/apps/gaussian16/c01/g16/l302.exe)
 NPDir=0 NMtPBC=     1 NCelOv=     1 NCel=       1 NClECP=     1 NCelD=      1
         NCelK=      1 NCelE2=     1 NClLst=     1 CellRange=     0.0.
 One-electron integrals computed using PRISM.
 One-electron integral symmetry used in STVInt
 NBasis=   960 RedAO= T EigKep=  3.81D-05  NBF=   504   456
 NBsUse=   960 1.00D-06 EigRej= -1.00D+00 NBFU=   504   456
 Precomputing XC quadrature grid using
 IXCGrd= 4 IRadAn=           5 IRanWt=          -1 IRanGd=           0 AccXCQ= 0.00D+00.
 Generated NRdTot=       0 NPtTot=           0 NUsed=           0 NTot=          32
 NSgBfM=   989   989   989   989   989 MxSgAt=    72 MxSgA2=    72.
 Leave Link  302 at Wed Sep 27 16:39:56 2023, MaxMem=  3221225472 cpu:              58.8 elap:               1.6
 (Enter /home/center/opt/aarch64/apps/gaussian16/c01/g16/l303.exe)
 DipDrv:  MaxL=1.
 Leave Link  303 at Wed Sep 27 16:39:59 2023, MaxMem=  3221225472 cpu:              11.9 elap:               0.3
 (Enter /home/center/opt/aarch64/apps/gaussian16/c01/g16/l401.exe)
 ExpMin= 1.03D-01 ExpMax= 4.56D+03 ExpMxC= 6.82D+02 IAcc=3 IRadAn=         5 AccDes= 0.00D+00
 Harris functional with IExCor=  402 and IRadAn=       5 diagonalized for initial guess.
 HarFok:  IExCor=  402 AccDes= 0.00D+00 IRadAn=         5 IDoV= 1 UseB2=F ITyADJ=14
 ICtDFT=  3500011 ScaDFX=  1.000000  1.000000  1.000000  1.000000
 FoFCou: FMM=F IPFlag=           0 FMFlag=      100000 FMFlg1=        2000
         NFxFlg=           0 DoJE=T BraDBF=F KetDBF=T FulRan=T
         wScrn=  0.000000 ICntrl=       500 IOpCl=  0 I1Cent=   200000004 NGrid=           0
         NMat0=    1 NMatS0=      1 NMatT0=    0 NMatD0=    1 NMtDS0=    0 NMtDT0=    0
 Petite list used in FoFCou.
 Harris En= -847.065719306626    
 JPrj=0 DoOrth=F DoCkMO=F.
 Initial guess orbital symmetries:
       Occupied  (A") (A') (A') (A") (A") (A') (A") (A') (A') (A")
                 (A") (A') (A') (A') (A") (A') (A") (A') (A") (A')
                 (A') (A") (A') (A") (A') (A") (A') (A') (A") (A')
                 (A") (A") (A') (A') (A") (A") (A') (A") (A') (A')
                 (A') (A") (A") (A") (A') (A') (A") (A') (A') (A")
                 (A') (A") (A") (A') (A') (A") (A') (A") (A') (A")
                 (A") (A') (A') (A") (A') (A") (A') (A") (A') (A')
                 (A") (A") (A')
       Virtual   (A') (A") (A") (A') (A') (A") (A') (A") (A') (A")
                 (A') (A') (A") (A') (A") (A') (A") (A') (A') (A")
                 (A") (A") (A') (A') (A") (A') (A') (A') (A') (A")
                 (A') (A") (A') (A") (A") (A') (A') (A") (A") (A')
                 (A') (A") (A") (A') (A") (A') (A') (A") (A") (A')
                 (A') (A") (A") (A') (A') (A') (A") (A') (A") (A')
                 (A") (A') (A") (A') (A") (A') (A') (A") (A") (A')
                 (A') (A") (A") (A") (A') (A') (A') (A') (A") (A')
                 (A') (A') (A') (A") (A") (A") (A') (A") (A') (A")
                 (A") (A") (A") (A') (A') (A") (A") (A') (A') (A')
                 (A') (A") (A') (A') (A") (A') (A') (A") (A') (A")
                 (A') (A") (A") (A') (A") (A") (A') (A") (A') (A")
                 (A') (A") (A') (A") (A') (A') (A') (A") (A') (A")
                 (A') (A") (A') (A') (A") (A") (A') (A') (A') (A")
                 (A') (A") (A') (A") (A') (A") (A') (A") (A") (A")
                 (A') (A') (A") (A") (A") (A') (A') (A') (A') (A")
                 (A') (A') (A") (A") (A') (A") (A') (A") (A') (A")
                 (A") (A') (A') (A") (A') (A') (A") (A") (A') (A")
                 (A') (A") (A') (A') (A") (A") (A') (A") (A") (A')
                 (A') (A') (A') (A") (A') (A') (A") (A") (A') (A')
                 (A") (A") (A") (A') (A") (A") (A') (A') (A") (A')
                 (A') (A') (A") (A") (A") (A') (A") (A') (A") (A")
                 (A') (A') (A') (A') (A") (A") (A') (A') (A') (A")
                 (A') (A') (A") (A') (A") (A") (A") (A') (A") (A")
                 (A") (A') (A') (A') (A") (A') (A') (A") (A") (A")
                 (A') (A") (A") (A') (A') (A') (A') (A') (A") (A")
                 (A") (A") (A') (A') (A') (A') (A") (A") (A') (A")
                 (A') (A') (A") (A") (A") (A') (A") (A') (A') (A")
                 (A') (A") (A") (A') (A') (A') (A") (A') (A") (A')
                 (A") (A") (A') (A') (A') (A') (A") (A') (A") (A')
                 (A") (A') (A") (A") (A') (A") (A') (A") (A") (A")
                 (A") (A') (A') (A') (A') (A') (A") (A') (A") (A")
                 (A') (A') (A") (A") (A') (A') (A") (A') (A") (A')
                 (A") (A') (A') (A') (A") (A') (A") (A') (A') (A")
                 (A') (A") (A") (A") (A') (A") (A") (A') (A') (A')
                 (A') (A") (A") (A') (A") (A') (A") (A') (A') (A')
                 (A') (A") (A') (A") (A") (A") (A") (A') (A') (A")
                 (A") (A') (A') (A") (A') (A") (A") (A') (A") (A')
                 (A") (A') (A") (A') (A") (A') (A') (A") (A') (A')
                 (A") (A") (A") (A') (A') (A') (A") (A") (A') (A")
                 (A') (A') (A") (A") (A") (A") (A') (A') (A') (A")
                 (A') (A") (A') (A') (A') (A") (A") (A') (A") (A')
                 (A") (A') (A") (A') (A") (A') (A") (A") (A') (A")
                 (A") (A') (A') (A') (A') (A') (A") (A") (A") (A')
                 (A") (A') (A") (A') (A') (A") (A') (A") (A") (A')
                 (A") (A') (A') (A') (A') (A") (A') (A") (A") (A")
                 (A") (A') (A') (A") (A') (A") (A") (A') (A') (A')
                 (A") (A') (A") (A") (A') (A") (A") (A') (A') (A")
                 (A') (A") (A") (A') (A") (A') (A') (A") (A") (A')
                 (A") (A') (A') (A') (A") (A") (A') (A") (A') (A")
                 (A') (A") (A') (A") (A') (A') (A") (A") (A') (A")
                 (A') (A') (A") (A') (A") (A") (A") (A') (A') (A')
                 (A") (A") (A') (A") (A') (A") (A') (A") (A') (A')
                 (A") (A') (A') (A") (A') (A") (A') (A') (A") (A')
                 (A") (A") (A') (A') (A") (A') (A') (A") (A") (A')
                 (A") (A") (A') (A') (A") (A') (A") (A') (A') (A")
                 (A') (A") (A') (A") (A") (A") (A') (A') (A") (A')
                 (A") (A') (A') (A') (A") (A') (A') (A") (A") (A")
                 (A') (A") (A') (A") (A') (A") (A") (A') (A") (A')
                 (A') (A') (A") (A') (A') (A") (A') (A") (A') (A")
                 (A") (A') (A") (A") (A') (A') (A") (A') (A') (A")
                 (A") (A') (A') (A") (A') (A") (A') (A") (A') (A")
                 (A') (A') (A") (A") (A') (A") (A") (A') (A') (A")
                 (A") (A') (A") (A") (A") (A') (A') (A') (A') (A')
                 (A") (A") (A') (A") (A') (A') (A") (A') (A") (A")
                 (A') (A") (A') (A") (A') (A") (A') (A") (A") (A')
                 (A") (A') (A') (A") (A") (A') (A") (A') (A") (A')
                 (A') (A") (A") (A') (A') (A") (A') (A") (A') (A')
                 (A") (A') (A") (A') (A") (A') (A") (A') (A') (A")
                 (A') (A") (A') (A') (A") (A") (A') (A") (A') (A')
[...]
                 (A') (A") (A') (A') (A') (A") (A") (A") (A") (A')
                 (A') (A') (A") (A") (A') (A") (A') (A") (A') (A')
                 (A") (A") (A')
       Virtual   (A') (A") (A") (A') (A') (A") (A') (A') (A') (A")
                 (A") (A') (A") (A') (A") (A') (A") (A") (A') (A")
                 (A') (A') (A") (A') (A") (A') (A') (A') (A') (A")
                 (A") (A") (A") (A') (A') (A") (A') (A") (A') (A")
                 (A') (A') (A') (A") (A') (A") (A") (A') (A') (A")
                 (A") (A') (A') (A") (A') (A") (A") (A") (A') (A")
                 (A') (A') (A') (A') (A') (A") (A') (A') (A") (A")
                 (A") (A') (A') (A') (A") (A') (A") (A") (A") (A')
                 (A') (A") (A') (A") (A") (A') (A") (A') (A') (A')
                 (A') (A') (A") (A") (A") (A") (A') (A") (A') (A")
                 (A') (A') (A') (A") (A") (A') (A') (A") (A') (A")
                 (A') (A") (A") (A") (A') (A') (A") (A') (A') (A")
                 (A') (A") (A") (A') (A') (A") (A') (A") (A') (A")
                 (A") (A') (A') (A') (A') (A") (A") (A") (A') (A")
                 (A') (A") (A') (A") (A') (A') (A") (A") (A') (A")
                 (A') (A") (A') (A") (A') (A') (A") (A') (A") (A")
                 (A') (A") (A') (A') (A") (A") (A') (A") (A') (A")
                 (A') (A') (A") (A') (A') (A") (A") (A') (A') (A')
                 (A") (A') (A") (A") (A") (A") (A') (A") (A') (A')
                 (A") (A') (A") (A') (A') (A') (A") (A') (A") (A')
                 (A") (A") (A') (A') (A") (A") (A') (A') (A") (A')
                 (A') (A') (A') (A") (A") (A") (A") (A') (A') (A")
                 (A') (A") (A") (A') (A") (A') (A") (A') (A") (A')
                 (A") (A') (A') (A") (A') (A") (A") (A') (A') (A")
                 (A") (A') (A') (A") (A") (A') (A") (A") (A") (A')
                 (A') (A") (A') (A') (A") (A') (A') (A") (A') (A")
                 (A") (A') (A") (A') (A') (A") (A") (A") (A') (A')
                 (A") (A') (A') (A") (A") (A") (A') (A") (A') (A')
                 (A") (A') (A") (A') (A") (A') (A') (A') (A") (A')
                 (A") (A") (A') (A') (A") (A") (A') (A") (A') (A")
                 (A') (A') (A") (A") (A') (A') (A") (A') (A') (A')
                 (A") (A") (A') (A") (A') (A") (A') (A") (A') (A')
                 (A') (A") (A") (A") (A') (A") (A') (A') (A') (A")
                 (A") (A') (A") (A') (A') (A") (A') (A") (A") (A')
                 (A') (A") (A') (A") (A") (A') (A') (A") (A') (A")
                 (A') (A") (A') (A") (A') (A") (A") (A') (A') (A")
                 (A') (A") (A') (A') (A") (A") (A') (A") (A') (A')
                 (A") (A') (A") (A') (A') (A") (A') (A") (A') (A")
                 (A") (A') (A") (A') (A") (A') (A") (A') (A') (A")
                 (A") (A') (A") (A') (A') (A") (A") (A') (A') (A")
                 (A') (A") (A') (A") (A') (A') (A")
 The electronic state is 1-A'.
 Alpha  occ. eigenvalues --  -10.18931 -10.18930 -10.18896 -10.18895 -10.18848
 Alpha  occ. eigenvalues --  -10.18848 -10.18813 -10.18813 -10.17956 -10.17955
 Alpha  occ. eigenvalues --  -10.17920 -10.17920 -10.17919 -10.17919 -10.17875
 Alpha  occ. eigenvalues --  -10.17875 -10.17863 -10.17863 -10.17808 -10.17808
 Alpha  occ. eigenvalues --  -10.17781 -10.17781  -0.89340  -0.87865  -0.85549
 Alpha  occ. eigenvalues --   -0.82415  -0.79820  -0.78521  -0.78314  -0.75991
 Alpha  occ. eigenvalues --   -0.74255  -0.72901  -0.69196  -0.67344  -0.62728
 Alpha  occ. eigenvalues --   -0.62370  -0.61108  -0.59964  -0.59301  -0.57689
 Alpha  occ. eigenvalues --   -0.52709  -0.52573  -0.52293  -0.49654  -0.48513
 Alpha  occ. eigenvalues --   -0.47160  -0.46110  -0.45590  -0.45476  -0.43928
 Alpha  occ. eigenvalues --   -0.43182  -0.42578  -0.41808  -0.41572  -0.41386
 Alpha  occ. eigenvalues --   -0.40692  -0.40405  -0.39579  -0.38193  -0.36732
 Alpha  occ. eigenvalues --   -0.36341  -0.35550  -0.34094  -0.33809  -0.33058
 Alpha  occ. eigenvalues --   -0.32930  -0.31612  -0.29665  -0.28406  -0.26623
 Alpha  occ. eigenvalues --   -0.24364  -0.22582  -0.17855
 Alpha virt. eigenvalues --   -0.09755  -0.04464  -0.02747  -0.00147   0.02073
 Alpha virt. eigenvalues --    0.02370   0.03189   0.04746   0.04859   0.04871
 Alpha virt. eigenvalues --    0.06161   0.06575   0.07968   0.08162   0.08303
 Alpha virt. eigenvalues --    0.09607   0.10049   0.11524   0.11533   0.13796
 Alpha virt. eigenvalues --    0.14111   0.14670   0.18092   0.18194   0.18832
 Alpha virt. eigenvalues --    0.19391   0.22815   0.23002   0.24379   0.24942
 Alpha virt. eigenvalues --    0.25581   0.27528   0.27575   0.28012   0.28228
 Alpha virt. eigenvalues --    0.28947   0.29389   0.30158   0.30759   0.31175
 Alpha virt. eigenvalues --    0.32897   0.34528   0.36420   0.36484   0.37134
 Alpha virt. eigenvalues --    0.37503   0.37629   0.37651   0.38116   0.38643
 Alpha virt. eigenvalues --    0.39094   0.39439   0.39739   0.40236   0.40435
 Alpha virt. eigenvalues --    0.41918   0.41926   0.41940   0.42289   0.42318
 Alpha virt. eigenvalues --    0.42643   0.43748   0.44233   0.44835   0.45295
 Alpha virt. eigenvalues --    0.45683   0.45924   0.45953   0.46379   0.47165
 Alpha virt. eigenvalues --    0.47805   0.47809   0.47978   0.48073   0.48231
 Alpha virt. eigenvalues --    0.48568   0.49414   0.49572   0.51377   0.51846
 Alpha virt. eigenvalues --    0.52370   0.53118   0.53671   0.55998   0.57923
 Alpha virt. eigenvalues --    0.57955   0.59048   0.59201   0.60433   0.60585
 Alpha virt. eigenvalues --    0.60693   0.61101   0.61690   0.62105   0.62173
 Alpha virt. eigenvalues --    0.63432   0.63481   0.64458   0.64535   0.65533
 Alpha virt. eigenvalues --    0.66693   0.66910   0.67680   0.67724   0.70658
 Alpha virt. eigenvalues --    0.71305   0.71405   0.71494   0.72803   0.73989
 Alpha virt. eigenvalues --    0.75405   0.75894   0.76289   0.77801   0.77809
 Alpha virt. eigenvalues --    0.78943   0.79160   0.79723   0.81162   0.81509
 Alpha virt. eigenvalues --    0.82881   0.83001   0.84383   0.84585   0.84713
 Alpha virt. eigenvalues --    0.88087   0.89711   0.89765   0.91536   0.92083
 Alpha virt. eigenvalues --    0.92578   0.93749   0.95806   0.96107   0.96442
 Alpha virt. eigenvalues --    0.96590   0.96905   0.98547   1.00356   1.01118
 Alpha virt. eigenvalues --    1.02686   1.03027   1.03354   1.04405   1.05244
 Alpha virt. eigenvalues --    1.05439   1.05525   1.05950   1.07395   1.07547
 Alpha virt. eigenvalues --    1.07686   1.08438   1.10005   1.10036   1.12070
 Alpha virt. eigenvalues --    1.13223   1.13544   1.13650   1.14526   1.15341
 Alpha virt. eigenvalues --    1.17432   1.18332   1.19657   1.20432   1.23014
 Alpha virt. eigenvalues --    1.23618   1.27884   1.28234   1.30579   1.32076
 Alpha virt. eigenvalues --    1.32743   1.34942   1.37641   1.39236   1.39896
 Alpha virt. eigenvalues --    1.39942   1.40725   1.42751   1.43476   1.43554
 Alpha virt. eigenvalues --    1.45057   1.46086   1.47119   1.47538   1.48841
 Alpha virt. eigenvalues --    1.49280   1.49417   1.50258   1.50674   1.52268
 Alpha virt. eigenvalues --    1.52650   1.53402   1.54331   1.54372   1.54781
 Alpha virt. eigenvalues --    1.54807   1.57107   1.57715   1.58569   1.59882
 Alpha virt. eigenvalues --    1.60106   1.62692   1.63242   1.64856   1.66641
 Alpha virt. eigenvalues --    1.69292   1.69605   1.69709   1.70649   1.71804
 Alpha virt. eigenvalues --    1.72459   1.72619   1.73075   1.73096   1.73680
 Alpha virt. eigenvalues --    1.77494   1.78519   1.79157   1.79419   1.80511
 Alpha virt. eigenvalues --    1.81616   1.81887   1.82058   1.83581   1.84039
 Alpha virt. eigenvalues --    1.85487   1.87392   1.87456   1.87577   1.87728
 Alpha virt. eigenvalues --    1.88131   1.88613   1.90743   1.91387   1.92190
 Alpha virt. eigenvalues --    1.92193   1.92572   1.92670   1.93517   1.93938
 Alpha virt. eigenvalues --    1.94544   1.95483   1.97262   1.99429   2.00088
 Alpha virt. eigenvalues --    2.00602   2.01362   2.03019   2.05757   2.08293
 Alpha virt. eigenvalues --    2.09111   2.09256   2.09792   2.12192   2.14098
 Alpha virt. eigenvalues --    2.15528   2.15584   2.17200   2.19751   2.20833
 Alpha virt. eigenvalues --    2.21576   2.22525   2.23381   2.24503   2.26441
 Alpha virt. eigenvalues --    2.26972   2.27242   2.27719   2.28046   2.29391
 Alpha virt. eigenvalues --    2.33301   2.35725   2.39155   2.39384   2.40817
 Alpha virt. eigenvalues --    2.42649   2.43076   2.45776   2.45994   2.46870
 Alpha virt. eigenvalues --    2.51623   2.51954   2.53354   2.53485   2.55138
 Alpha virt. eigenvalues --    2.56159   2.58701   2.58838   2.59764   2.59776
 Alpha virt. eigenvalues --    2.60682   2.61147   2.61719   2.62222   2.63349
 Alpha virt. eigenvalues --    2.63999   2.64478   2.66054   2.66794   2.67121
 Alpha virt. eigenvalues --    2.67374   2.68356   2.68872   2.68876   2.69372
 Alpha virt. eigenvalues --    2.69557   2.69907   2.70083   2.70281   2.73482
 Alpha virt. eigenvalues --    2.74771   2.74836   2.76066   2.77101   2.77577
 Alpha virt. eigenvalues --    2.78232   2.78455   2.78850   2.80822   2.82359
 Alpha virt. eigenvalues --    2.85535   2.85993   2.86737   2.87294   2.90966
 Alpha virt. eigenvalues --    2.91783   2.92195   2.93676   2.95232   2.95887
 Alpha virt. eigenvalues --    2.99270   2.99858   3.03165   3.05604   3.06852
 Alpha virt. eigenvalues --    3.07371   3.15988   3.16029   3.16647   3.19843
 Alpha virt. eigenvalues --    3.20017   3.23601   3.29134   3.29680   3.31610
 Alpha virt. eigenvalues --    3.35095   3.35458   3.35677   3.35858   3.38023
 Alpha virt. eigenvalues --    3.39887   3.41413   3.44960   3.45362   3.47993
 Alpha virt. eigenvalues --    3.48278   3.50401   3.53073   3.57439   3.58649
 Alpha virt. eigenvalues --    3.61466   3.62620   3.63208   3.63698   3.65910
 Alpha virt. eigenvalues --    3.67534   3.67678   4.00384   4.00442   4.01859
 Alpha virt. eigenvalues --    4.02182   4.16133   4.16678   4.17360   4.21240
 Alpha virt. eigenvalues --    4.22396   4.22517   4.25488   4.38492   4.62290
 Alpha virt. eigenvalues --    4.79179   4.79740   4.80562   4.82562   4.83014
 Alpha virt. eigenvalues --   23.39176  23.54541  23.69085  23.77378  23.80419
 Alpha virt. eigenvalues --   23.81537  23.86099  23.89067  23.89154  23.92210
 Alpha virt. eigenvalues --   23.97563  23.98365  24.09049  24.09932  24.10529
 Alpha virt. eigenvalues --   24.12220  24.13779  24.14375  24.15775  24.15810
 Alpha virt. eigenvalues --   24.20452  24.20497
          Condensed to atoms (all electrons):
 Mulliken charges:
               1
     1  C    0.000000
     2  C    0.000000
     3  C    0.000000
     4  C    0.000000
     5  C    0.000000
     6  C    0.000000
     7  C    0.000000
     8  C    0.000000
     9  C    0.000000
    10  C    0.000000
    11  H    0.000000
    12  H    0.000000
    13  H    0.000000
    14  H    0.000000
    15  H    0.000000
    16  H    0.000000
    17  C    0.000000
    18  C    0.000000
    19  C    0.000000
    20  C    0.000000
    21  H    0.000000
    22  H    0.000000
    23  C    0.000000
    24  C    0.000000
    25  C    0.000000
    26  C    0.000000
    27  H    0.000000
    28  H    0.000000
    29  C    0.000000
    30  C    0.000000
    31  C    0.000000
    32  C    0.000000
    33  H    0.000000
    34  H    0.000000
    35  H    0.000000
    36  H    0.000000
    37  C   -0.059168
    38  C   -0.059168
    39  C   -0.055977
    40  C   -0.055977
    41  C   -0.092198
    42  C   -0.092198
    43  C   -0.016525
    44  C   -0.054498
    45  C   -0.016525
    46  C   -0.054498
    47  H    0.082122
    48  H    0.074853
    49  H    0.074853
    50  H    0.082122
    51  H    0.094847
    52  H    0.094847
    53  C   -0.020341
    54  C   -0.054498
    55  C   -0.020341
    56  C   -0.054498
    57  H    0.073428
    58  H    0.073428
    59  C   -0.016525
    60  C   -0.059168
    61  C   -0.016525
    62  C   -0.059168
    63  H    0.074853
    64  H    0.074853
    65  C   -0.055977
    66  C   -0.092198
    67  C   -0.055977
    68  C   -0.092198
    69  H    0.082122
    70  H    0.094847
    71  H    0.094847
    72  H    0.082122
 Sum of Mulliken charges =   0.00000
 Mulliken charges with hydrogens summed into heavy atoms:
               1
     1  C    0.000000
     2  C    0.000000
     3  C    0.000000
     4  C    0.000000
     5  C    0.000000
     6  C    0.000000
     7  C    0.000000
     8  C    0.000000
     9  C    0.000000
    10  C    0.000000
    17  C    0.000000
    18  C    0.000000
    19  C    0.000000
    20  C    0.000000
    23  C    0.000000
    24  C    0.000000
    25  C    0.000000
    26  C    0.000000
    29  C    0.000000
    30  C    0.000000
    31  C    0.000000
    32  C    0.000000
    37  C   -0.059168
    38  C   -0.059168
    39  C    0.026144
    40  C    0.026144
    41  C    0.002649
    42  C    0.002649
    43  C    0.058328
    44  C   -0.054498
    45  C    0.058328
    46  C   -0.054498
    53  C    0.053087
    54  C   -0.054498
    55  C    0.053087
    56  C   -0.054498
    59  C    0.058328
    60  C   -0.059168
    61  C    0.058328
    62  C   -0.059168
    65  C    0.026144
    66  C    0.002649
    67  C    0.026144
    68  C    0.002649
         Mulliken charges condensed to fragments:
      1      0.000000
      2      0.000000
 Electronic spatial extent (au):  <R**2>=          12556.7820
 Charge=              0.0000 electrons
 Dipole moment (field-independent basis, Debye):
    X=              0.0000    Y=              0.0000    Z=              0.0000  Tot=              0.0000
 Quadrupole moment (field-independent basis, Debye-Ang):
   XX=           -136.3921   YY=           -110.7480   ZZ=           -109.0115
   XY=              0.0000   XZ=              0.0000   YZ=              0.0000
 Traceless Quadrupole moment (field-independent basis, Debye-Ang):
   XX=            -17.6749   YY=              7.9692   ZZ=              9.7057
   XY=              0.0000   XZ=              0.0000   YZ=              0.0000
 Octapole moment (field-independent basis, Debye-Ang**2):
  XXX=            723.3281  YYY=            587.3301  ZZZ=              0.0000  XYY=            195.7767
  XXY=            241.1094  XXZ=              0.0000  XZZ=            192.7069  YZZ=            192.7069
  YYZ=              0.0000  XYZ=              0.0000
 Hexadecapole moment (field-independent basis, Debye-Ang**3):
 XXXX=          -2711.7550 YYYY=          -3193.2425 ZZZZ=         -10461.4324 XXXY=          -1278.6755
 XXXZ=              0.0000 YYYX=          -1038.2628 YYYZ=              0.0000 ZZZX=              0.0000
 ZZZY=              0.0000 XXYY=          -1028.7281 XXZZ=          -2548.5928 YYZZ=          -2309.8752
 XXYZ=              0.0000 YYXZ=              0.0000 ZZXY=           -340.6608
 N-N= 1.494327112193D+03 E-N=-4.953709175941D+03  KE= 8.433374905104D+02
 Symmetry A'   KE= 4.567052305456D+02
 Symmetry A"   KE= 3.866322599648D+02
 No NMR shielding tensors so no spin-rotation constants.
 Leave Link  601 at Wed Sep 27 16:57:15 2023, MaxMem=  3221225472 cpu:              17.7 elap:               0.5
 (Enter /home/center/opt/aarch64/apps/gaussian16/c01/g16/l122.exe)
 CPIOFr:  IOpCl= 0 IRwI=-1 IRwCP=  731 ICalc=  4 LCPTot=     1419224 Len1MO=     3708034 IndFrg=    19959394
 Restoring MOs from calculation   1 to rwf.
 CPIOFr:  IOpCl= 0 IRwI=-2 IRwCP=  731 ICalc=  0 LCPTot=     1419224 Len1MO=     3708034 IndFrg=     5127258
 Counterpoise corrected energy =   -1694.055946605943
                   BSSE energy =       0.002904930041
              sum of fragments =   -1694.039683044266
           complexation energy =     -12.03 kcal/mole (raw)
           complexation energy =     -10.21 kcal/mole (corrected)
 Leave Link  122 at Wed Sep 27 16:57:18 2023, MaxMem=  3221225472 cpu:               8.3 elap:               0.3
 (Enter /home/center/opt/aarch64/apps/gaussian16/c01/g16/l9999.exe)

 Test job not archived.
 1\1\GINC-FX0479\SP\RB3LYP\6-311G(d,p)\C44H28\Z40145W\27-Sep-2023\0\\#P
  TEST b3lyp/6-311G** EmpiricalDispersion=GD3 counterpoise=2\\pentacene
 _A1=0_A2=0_A3=45_p2\\0,1\C,0,-0.5039478476,0.5239478476,-3.6612755801\
 C,0,0.5239480325,-0.5039480325,-3.6612755629\C,0,-0.9861248463,1.00612
 48463,-4.9235927708\C,0,1.0061250889,-0.9861250889,-4.9235926697\C,0,-
 0.4963213507,0.5163213507,-6.096356521\C,0,0.5163216812,-0.4963216812,
 -6.0963564796\C,0,-0.9844684311,1.0044684311,-2.4533174875\C,0,-0.5044
 88426,0.524488426,-1.2140288145\C,0,1.0044685359,-0.9844685359,-2.4533
 173917\C,0,0.5244885437,-0.5044885437,-1.2140288362\H,0,-1.7533559667,
 1.7733559667,-4.9232600459\H,0,-1.7521866813,1.7721866813,-2.453928581
 5\H,0,1.7721859268,-1.7521859268,-2.4539284818\H,0,1.7733558421,-1.753
 3558421,-4.9232597785\H,0,0.8905568758,-0.8705568758,-7.0425276922\H,0
 ,-0.8705565046,0.8905565046,-7.042527775\C,0,-0.9848184961,1.004818496
 1,0.0099998782\C,0,-0.5044883957,0.5244883957,1.2340295553\C,0,1.00481
 85643,-0.9848185643,0.0099998696\C,0,0.5244885146,-0.5044885146,1.2340
 295261\H,0,-1.7524699697,1.7724699697,0.0099999205\H,0,1.772468921,-1.
 752468921,0.0099999641\C,0,-0.9844683048,1.0044683048,2.4733171385\C,0
 ,-0.5039477114,0.5239477114,3.681276331\C,0,1.0044684211,-0.9844684211
 ,2.4733170835\C,0,0.5239479079,-0.5039479079,3.6812763217\H,0,-1.75218
 65527,1.7721865527,2.4739285326\H,0,1.7721858092,-1.7521858092,2.47392
 83796\C,0,-0.9861245177,1.0061245177,4.9435920588\C,0,-0.4963209372,0.
 5163209372,6.116356633\C,0,1.0061247659,-0.9861247659,4.9435919377\C,0
 ,0.5163212637,-0.4963212637,6.1163566075\H,0,-1.7533556504,1.773355650
 4,4.9432601504\H,0,-0.8705567426,0.8905567426,7.0625274368\H,0,0.89055
 70967,-0.8705570967,7.0625272142\H,0,1.7733555414,-1.7533555414,4.9432
 599297\C,0,4.4960521524,0.5239478476,-3.6612755801\C,0,5.5239480325,-0
 .5039480325,-3.6612755629\C,0,4.0138751537,1.0061248463,-4.9235927708\
 C,0,6.0061250889,-0.9861250889,-4.9235926697\C,0,4.5036786493,0.516321
 3507,-6.096356521\C,0,5.5163216812,-0.4963216812,-6.0963564796\C,0,4.0
 155315689,1.0044684311,-2.4533174875\C,0,4.495511574,0.524488426,-1.21
 40288145\C,0,6.0044685359,-0.9844685359,-2.4533173917\C,0,5.5244885437
 ,-0.5044885437,-1.2140288362\H,0,3.2466440333,1.7733559667,-4.92326004
 59\H,0,3.2478133187,1.7721866813,-2.4539285815\H,0,6.7721859268,-1.752
 1859268,-2.4539284818\H,0,6.7733558421,-1.7533558421,-4.9232597785\H,0
 ,5.8905568758,-0.8705568758,-7.0425276922\H,0,4.1294434954,0.890556504
 6,-7.042527775\C,0,4.0151815039,1.0048184961,0.0099998782\C,0,4.495511
 6043,0.5244883957,1.2340295553\C,0,6.0048185643,-0.9848185643,0.009999
 8696\C,0,5.5244885146,-0.5044885146,1.2340295261\H,0,3.2475300303,1.77
 24699697,0.0099999205\H,0,6.772468921,-1.752468921,0.0099999641\C,0,4.
 0155316952,1.0044683048,2.4733171385\C,0,4.4960522886,0.5239477114,3.6
 81276331\C,0,6.0044684211,-0.9844684211,2.4733170835\C,0,5.5239479079,
 -0.5039479079,3.6812763217\H,0,3.2478134473,1.7721865527,2.4739285326\
 H,0,6.7721858092,-1.7521858092,2.4739283796\C,0,4.0138754823,1.0061245
 177,4.9435920588\C,0,4.5036790628,0.5163209372,6.116356633\C,0,6.00612
 47659,-0.9861247659,4.9435919377\C,0,5.5163212637,-0.4963212637,6.1163
 566075\H,0,3.2466443496,1.7733556504,4.9432601504\H,0,4.1294432574,0.8
 905567426,7.0625274368\H,0,5.8905570967,-0.8705570967,7.0625272142\H,0
 ,6.7733555414,-1.7533555414,4.9432599297\\Version=Fujitsu-Arm-G16RevC.
 01\State=1-A'\HF=-847.0198415\RMSD=3.181e-09\Dipole=-0.0000009,0.00000
 11,0.\Quadrupole=-8.9382346,-5.3835131,14.3217477,-17.4479777,0.,0.\PG
 =CS [SG(C4H4),X(C40H24)]\\@


 DESK:  A WASTEBASKET WITH DRAWERS.
 Job cpu time:       0 days  3 hours 35 minutes 22.6 seconds.
 Elapsed time:       0 days  0 hours  5 minutes 35.1 seconds.
 File lengths (MBytes):  RWF=    718 Int=      0 D2E=      0 Chk=    208 Scr=      1
 Normal termination of Gaussian 16 at Wed Sep 27 16:57:24 2023.
