 Entering Gaussian System, Link 0=g16
 Initial command:
 /home/center/opt/aarch64/apps/gaussian16/c01/g16/l1.exe "/data/tmp/Gtmp/1006999/Gau-48.inp" -scrdir="/data/tmp/Gtmp/1006999/"
 Entering Link 1 = /home/center/opt/aarch64/apps/gaussian16/c01/g16/l1.exe PID=        49.
  
 Copyright (c) 1988-2019, Gaussian, Inc.  All Rights Reserved.
  
 This is part of the Gaussian(R) 16 program.  It is based on
 the Gaussian(R) 09 system (copyright 2009, Gaussian, Inc.),
 the Gaussian(R) 03 system (copyright 2003, Gaussian, Inc.),
 the Gaussian(R) 98 system (copyright 1998, Gaussian, Inc.),
 the Gaussian(R) 94 system (copyright 1995, Gaussian, Inc.),
 the Gaussian 92(TM) system (copyright 1992, Gaussian, Inc.),
 the Gaussian 90(TM) system (copyright 1990, Gaussian, Inc.),
 the Gaussian 88(TM) system (copyright 1988, Gaussian, Inc.),
 the Gaussian 86(TM) system (copyright 1986, Carnegie Mellon
 University), and the Gaussian 82(TM) system (copyright 1983,
 Carnegie Mellon University). Gaussian is a federally registered
 trademark of Gaussian, Inc.
  
 This software contains proprietary and confidential information,
 including trade secrets, belonging to Gaussian, Inc.
  
 This software is provided under written license and may be
 used, copied, transmitted, or stored only in accord with that
 written license.
  
 The following legend is applicable only to US Government
 contracts under FAR:
  
                    RESTRICTED RIGHTS LEGEND
  
 Use, reproduction and disclosure by the US Government is
 subject to restrictions as set forth in subparagraphs (a)
 and (c) of the Commercial Computer Software - Restricted
 Rights clause in FAR 52.227-19.
  
 Gaussian, Inc.
 340 Quinnipiac St., Bldg. 40, Wallingford CT 06492
  
  
 ---------------------------------------------------------------
 Warning -- This program may not be used in any manner that
 competes with the business of Gaussian, Inc. or will provide
 assistance to any competitor of Gaussian, Inc.  The licensee
 of this program is prohibited from giving any competitor of
 Gaussian, Inc. access to this program.  By using this program,
 the user acknowledges that Gaussian, Inc. is engaged in the
 business of creating and licensing software in the field of
 computational chemistry and represents and warrants to the
 licensee that it is not a competitor of Gaussian, Inc. and that
 it will not use this program in any manner prohibited above.
 ---------------------------------------------------------------
  

 Cite this work as:
 Gaussian 16, Revision C.01,
 M. J. Frisch, G. W. Trucks, H. B. Schlegel, G. E. Scuseria, 
 M. A. Robb, J. R. Cheeseman, G. Scalmani, V. Barone, 
 G. A. Petersson, H. Nakatsuji, X. Li, M. Caricato, A. V. Marenich, 
 J. Bloino, B. G. Janesko, R. Gomperts, B. Mennucci, H. P. Hratchian, 
 J. V. Ortiz, A. F. Izmaylov, J. L. Sonnenberg, D. Williams-Young, 
 F. Ding, F. Lipparini, F. Egidi, J. Goings, B. Peng, A. Petrone, 
 T. Henderson, D. Ranasinghe, V. G. Zakrzewski, J. Gao, N. Rega, 
 G. Zheng, W. Liang, M. Hada, M. Ehara, K. Toyota, R. Fukuda, 
 J. Hasegawa, M. Ishida, T. Nakajima, Y. Honda, O. Kitao, H. Nakai, 
 T. Vreven, K. Throssell, J. A. Montgomery, Jr., J. E. Peralta, 
 F. Ogliaro, M. J. Bearpark, J. J. Heyd, E. N. Brothers, K. N. Kudin, 
 V. N. Staroverov, T. A. Keith, R. Kobayashi, J. Normand, 
 K. Raghavachari, A. P. Rendell, J. C. Burant, S. S. Iyengar, 
 J. Tomasi, M. Cossi, J. M. Millam, M. Klene, C. Adamo, R. Cammi, 
 J. W. Ochterski, R. L. Martin, K. Morokuma, O. Farkas, 
 J. B. Foresman, and D. J. Fox, Gaussian, Inc., Wallingford CT, 2019.
 
 ************************************************
 Gaussian 16:  Fujitsu-Arm-G16RevC.01  3-Jul-2019
                   27-Sep-2023 
 ************************************************
 %mem=24GB
 %nproc=42
 Will use up to   42 processors via shared memory.
 -------------------------------------------------------------
 #P TEST b3lyp/6-311G** EmpiricalDispersion=GD3 counterpoise=2
 -------------------------------------------------------------
 1/38=1,62=2,172=1/1;
 2/12=2,17=6,18=5,40=1/2;
 1/38=1,53=2,62=2,63=1/22;
 3/5=4,6=6,7=101,11=2,25=1,30=1,74=-5,124=31/1,2,3;
 4//1;
 5/5=2,38=5/2;
 6/7=2,8=2,9=2,10=2,28=1/1;
 1/53=2,62=2,63=1/22;
 3/5=7,6=11,7=101,11=2,25=1,30=1,74=-5,82=7,124=31/1,2,3;
 4//1;
 5/5=2,38=5/2;
 6/7=2,8=2,9=2,10=2,28=1/1;
 1/53=2,62=2,63=1/22(-4);
 99/5=1,9=1/99;
 Leave Link    1 at Wed Sep 27 16:57:59 2023, MaxMem=  3221225472 cpu:               7.0 elap:               0.2
 (Enter /home/center/opt/aarch64/apps/gaussian16/c01/g16/l101.exe)
 ----------------------------
 pentacene_A1=0_A2=0_A3=45_t1
 ----------------------------
 Symbolic Z-matrix:
 Charge =  0 Multiplicity = 1 in supermolecule
 Charge =  0 Multiplicity = 1 in fragment      1.
 Charge =  0 Multiplicity = 1 in fragment      2.
 C(Fragment=1)        -0.50395   0.52395  -3.66128 
 C(Fragment=1)         0.52395  -0.50395  -3.66128 
 C(Fragment=1)        -0.98612   1.00612  -4.92359 
 C(Fragment=1)         1.00613  -0.98613  -4.92359 
 C(Fragment=1)        -0.49632   0.51632  -6.09636 
 C(Fragment=1)         0.51632  -0.49632  -6.09636 
 C(Fragment=1)        -0.98447   1.00447  -2.45332 
 C(Fragment=1)        -0.50449   0.52449  -1.21403 
 C(Fragment=1)         1.00447  -0.98447  -2.45332 
 C(Fragment=1)         0.52449  -0.50449  -1.21403 
 H(Fragment=1)        -1.75336   1.77336  -4.92326 
 H(Fragment=1)        -1.75219   1.77219  -2.45393 
 H(Fragment=1)         1.77219  -1.75219  -2.45393 
 H(Fragment=1)         1.77336  -1.75336  -4.92326 
 H(Fragment=1)         0.89056  -0.87056  -7.04253 
 H(Fragment=1)        -0.87056   0.89056  -7.04253 
 C(Fragment=1)        -0.98482   1.00482   0.01 
 C(Fragment=1)        -0.50449   0.52449   1.23403 
 C(Fragment=1)         1.00482  -0.98482   0.01 
 C(Fragment=1)         0.52449  -0.50449   1.23403 
 H(Fragment=1)        -1.75247   1.77247   0.01 
 H(Fragment=1)         1.77247  -1.75247   0.01 
 C(Fragment=1)        -0.98447   1.00447   2.47332 
 C(Fragment=1)        -0.50395   0.52395   3.68128 
 C(Fragment=1)         1.00447  -0.98447   2.47332 
 C(Fragment=1)         0.52395  -0.50395   3.68128 
 H(Fragment=1)        -1.75219   1.77219   2.47393 
 H(Fragment=1)         1.77219  -1.75219   2.47393 
 C(Fragment=1)        -0.98612   1.00612   4.94359 
 C(Fragment=1)        -0.49632   0.51632   6.11636 
 C(Fragment=1)         1.00612  -0.98612   4.94359 
 C(Fragment=1)         0.51632  -0.49632   6.11636 
 H(Fragment=1)        -1.75336   1.77336   4.94326 
 H(Fragment=1)        -0.87056   0.89056   7.06253 
 H(Fragment=1)         0.89056  -0.87056   7.06253 
 H(Fragment=1)         1.77336  -1.75336   4.94326 
 C(Fragment=2)         5.52395   2.77395  -3.66128 
 C(Fragment=2)         4.49605   1.74605  -3.66128 
 C(Fragment=2)         6.00612   3.25612  -4.92359 
 C(Fragment=2)         4.01387   1.26387  -4.92359 
 C(Fragment=2)         5.51632   2.76632  -6.09636 
 C(Fragment=2)         4.50368   1.75368  -6.09636 
 C(Fragment=2)         6.00447   3.25447  -2.45332 
 C(Fragment=2)         5.52449   2.77449  -1.21403 
 C(Fragment=2)         4.01553   1.26553  -2.45332 
 C(Fragment=2)         4.49551   1.74551  -1.21403 
 H(Fragment=2)         6.77336   4.02336  -4.92326 
 H(Fragment=2)         6.77219   4.02219  -2.45393 
 H(Fragment=2)         3.24781   0.49781  -2.45393 
 H(Fragment=2)         3.24664   0.49664  -4.92326 
 H(Fragment=2)         4.12944   1.37944  -7.04253 
 H(Fragment=2)         5.89056   3.14056  -7.04253 
 C(Fragment=2)         6.00482   3.25482   0.01 
 C(Fragment=2)         5.52449   2.77449   1.23403 
 C(Fragment=2)         4.01518   1.26518   0.01 
 C(Fragment=2)         4.49551   1.74551   1.23403 
 H(Fragment=2)         6.77247   4.02247   0.01 
 H(Fragment=2)         3.24753   0.49753   0.01 
 C(Fragment=2)         6.00447   3.25447   2.47332 
 C(Fragment=2)         5.52395   2.77395   3.68128 
 C(Fragment=2)         4.01553   1.26553   2.47332 
 C(Fragment=2)         4.49605   1.74605   3.68128 
 H(Fragment=2)         6.77219   4.02219   2.47393 
 H(Fragment=2)         3.24781   0.49781   2.47393 
 C(Fragment=2)         6.00612   3.25612   4.94359 
 C(Fragment=2)         5.51632   2.76632   6.11636 
 C(Fragment=2)         4.01388   1.26388   4.94359 
 C(Fragment=2)         4.50368   1.75368   6.11636 
 H(Fragment=2)         6.77336   4.02336   4.94326 
 H(Fragment=2)         5.89056   3.14056   7.06253 
 H(Fragment=2)         4.12944   1.37944   7.06253 
 H(Fragment=2)         3.24664   0.49664   4.94326 
 
 ITRead=  0  0  0  0  0  0  0  0  0  0  0  0  0  0  0  0  0  0  0  0
 ITRead=  0  0  0  0  0  0  0  0  0  0  0  0  0  0  0  0  0  0  0  0
 ITRead=  0  0  0  0  0  0  0  0  0  0  0  0  0  0  0  0  0  0  0  0
 ITRead=  0  0  0  0  0  0  0  0  0  0  0  0
 MicOpt= -1 -1 -1 -1 -1 -1 -1 -1 -1 -1 -1 -1 -1 -1 -1 -1 -1 -1 -1 -1
 MicOpt= -1 -1 -1 -1 -1 -1 -1 -1 -1 -1 -1 -1 -1 -1 -1 -1 -1 -1 -1 -1
 MicOpt= -1 -1 -1 -1 -1 -1 -1 -1 -1 -1 -1 -1 -1 -1 -1 -1 -1 -1 -1 -1
 MicOpt= -1 -1 -1 -1 -1 -1 -1 -1 -1 -1 -1 -1
 NAtoms=     72 NQM=       72 NQMF=       0 NMMI=      0 NMMIF=      0
                NMic=       0 NMicF=      0.
                    Isotopes and Nuclear Properties:
 (Nuclear quadrupole moments (NQMom) in fm**2, nuclear magnetic moments (NMagM)
  in nuclear magnetons)

  Atom         1           2           3           4           5           6           7           8           9          10
 IAtWgt=          12          12          12          12          12          12          12          12          12          12
 AtmWgt=  12.0000000  12.0000000  12.0000000  12.0000000  12.0000000  12.0000000  12.0000000  12.0000000  12.0000000  12.0000000
 NucSpn=           0           0           0           0           0           0           0           0           0           0
 AtZEff=   0.0000000   0.0000000   0.0000000   0.0000000   0.0000000   0.0000000   0.0000000   0.0000000   0.0000000   0.0000000
 NQMom=    0.0000000   0.0000000   0.0000000   0.0000000   0.0000000   0.0000000   0.0000000   0.0000000   0.0000000   0.0000000
 NMagM=    0.0000000   0.0000000   0.0000000   0.0000000   0.0000000   0.0000000   0.0000000   0.0000000   0.0000000   0.0000000
 AtZNuc=   6.0000000   6.0000000   6.0000000   6.0000000   6.0000000   6.0000000   6.0000000   6.0000000   6.0000000   6.0000000

  Atom        11          12          13          14          15          16          17          18          19          20
 IAtWgt=           1           1           1           1           1           1          12          12          12          12
 AtmWgt=   1.0078250   1.0078250   1.0078250   1.0078250   1.0078250   1.0078250  12.0000000  12.0000000  12.0000000  12.0000000
 NucSpn=           1           1           1           1           1           1           0           0           0           0
 AtZEff=   0.0000000   0.0000000   0.0000000   0.0000000   0.0000000   0.0000000   0.0000000   0.0000000   0.0000000   0.0000000
 NQMom=    0.0000000   0.0000000   0.0000000   0.0000000   0.0000000   0.0000000   0.0000000   0.0000000   0.0000000   0.0000000
 NMagM=    2.7928460   2.7928460   2.7928460   2.7928460   2.7928460   2.7928460   0.0000000   0.0000000   0.0000000   0.0000000
 AtZNuc=   1.0000000   1.0000000   1.0000000   1.0000000   1.0000000   1.0000000   6.0000000   6.0000000   6.0000000   6.0000000

  Atom        21          22          23          24          25          26          27          28          29          30
 IAtWgt=           1           1          12          12          12          12           1           1          12          12
 AtmWgt=   1.0078250   1.0078250  12.0000000  12.0000000  12.0000000  12.0000000   1.0078250   1.0078250  12.0000000  12.0000000
 NucSpn=           1           1           0           0           0           0           1           1           0           0
 AtZEff=   0.0000000   0.0000000   0.0000000   0.0000000   0.0000000   0.0000000   0.0000000   0.0000000   0.0000000   0.0000000
 NQMom=    0.0000000   0.0000000   0.0000000   0.0000000   0.0000000   0.0000000   0.0000000   0.0000000   0.0000000   0.0000000
 NMagM=    2.7928460   2.7928460   0.0000000   0.0000000   0.0000000   0.0000000   2.7928460   2.7928460   0.0000000   0.0000000
 AtZNuc=   1.0000000   1.0000000   6.0000000   6.0000000   6.0000000   6.0000000   1.0000000   1.0000000   6.0000000   6.0000000

  Atom        31          32          33          34          35          36          37          38          39          40
 IAtWgt=          12          12           1           1           1           1          12          12          12          12
 AtmWgt=  12.0000000  12.0000000   1.0078250   1.0078250   1.0078250   1.0078250  12.0000000  12.0000000  12.0000000  12.0000000
 NucSpn=           0           0           1           1           1           1           0           0           0           0
 AtZEff=   0.0000000   0.0000000   0.0000000   0.0000000   0.0000000   0.0000000   0.0000000   0.0000000   0.0000000   0.0000000
 NQMom=    0.0000000   0.0000000   0.0000000   0.0000000   0.0000000   0.0000000   0.0000000   0.0000000   0.0000000   0.0000000
 NMagM=    0.0000000   0.0000000   2.7928460   2.7928460   2.7928460   2.7928460   0.0000000   0.0000000   0.0000000   0.0000000
 AtZNuc=   6.0000000   6.0000000   1.0000000   1.0000000   1.0000000   1.0000000   6.0000000   6.0000000   6.0000000   6.0000000

  Atom        41          42          43          44          45          46          47          48          49          50
 IAtWgt=          12          12          12          12          12          12           1           1           1           1
 AtmWgt=  12.0000000  12.0000000  12.0000000  12.0000000  12.0000000  12.0000000   1.0078250   1.0078250   1.0078250   1.0078250
 NucSpn=           0           0           0           0           0           0           1           1           1           1
 AtZEff=   0.0000000   0.0000000   0.0000000   0.0000000   0.0000000   0.0000000   0.0000000   0.0000000   0.0000000   0.0000000
 NQMom=    0.0000000   0.0000000   0.0000000   0.0000000   0.0000000   0.0000000   0.0000000   0.0000000   0.0000000   0.0000000
 NMagM=    0.0000000   0.0000000   0.0000000   0.0000000   0.0000000   0.0000000   2.7928460   2.7928460   2.7928460   2.7928460
 AtZNuc=   6.0000000   6.0000000   6.0000000   6.0000000   6.0000000   6.0000000   1.0000000   1.0000000   1.0000000   1.0000000

  Atom        51          52          53          54          55          56          57          58          59          60
 IAtWgt=           1           1          12          12          12          12           1           1          12          12
 AtmWgt=   1.0078250   1.0078250  12.0000000  12.0000000  12.0000000  12.0000000   1.0078250   1.0078250  12.0000000  12.0000000
 NucSpn=           1           1           0           0           0           0           1           1           0           0
 AtZEff=   0.0000000   0.0000000   0.0000000   0.0000000   0.0000000   0.0000000   0.0000000   0.0000000   0.0000000   0.0000000
 NQMom=    0.0000000   0.0000000   0.0000000   0.0000000   0.0000000   0.0000000   0.0000000   0.0000000   0.0000000   0.0000000
 NMagM=    2.7928460   2.7928460   0.0000000   0.0000000   0.0000000   0.0000000   2.7928460   2.7928460   0.0000000   0.0000000
 AtZNuc=   1.0000000   1.0000000   6.0000000   6.0000000   6.0000000   6.0000000   1.0000000   1.0000000   6.0000000   6.0000000

  Atom        61          62          63          64          65          66          67          68          69          70
 IAtWgt=          12          12           1           1          12          12          12          12           1           1
 AtmWgt=  12.0000000  12.0000000   1.0078250   1.0078250  12.0000000  12.0000000  12.0000000  12.0000000   1.0078250   1.0078250
 NucSpn=           0           0           1           1           0           0           0           0           1           1
 AtZEff=   0.0000000   0.0000000   0.0000000   0.0000000   0.0000000   0.0000000   0.0000000   0.0000000   0.0000000   0.0000000
 NQMom=    0.0000000   0.0000000   0.0000000   0.0000000   0.0000000   0.0000000   0.0000000   0.0000000   0.0000000   0.0000000
 NMagM=    0.0000000   0.0000000   2.7928460   2.7928460   0.0000000   0.0000000   0.0000000   0.0000000   2.7928460   2.7928460
 AtZNuc=   6.0000000   6.0000000   1.0000000   1.0000000   6.0000000   6.0000000   6.0000000   6.0000000   1.0000000   1.0000000

  Atom        71          72
 IAtWgt=           1           1
 AtmWgt=   1.0078250   1.0078250
 NucSpn=           1           1
 AtZEff=   0.0000000   0.0000000
 NQMom=    0.0000000   0.0000000
 NMagM=    2.7928460   2.7928460
 AtZNuc=   1.0000000   1.0000000
 Leave Link  101 at Wed Sep 27 16:58:01 2023, MaxMem=  3221225472 cpu:               2.5 elap:               0.1
 (Enter /home/center/opt/aarch64/apps/gaussian16/c01/g16/l202.exe)
 Stoichiometry    C44H28
 Framework group  CS[SG(C4H4),X(C40H24)]
 Deg. of freedom   109
 Full point group                 CS      NOp   2
 Largest Abelian subgroup         CS      NOp   2
 Largest concise Abelian subgroup CS      NOp   2
                         Standard orientation:                         
 ---------------------------------------------------------------------
 Center     Atomic      Atomic             Coordinates (Angstroms)
 Number     Number       Type             X           Y           Z
 ---------------------------------------------------------------------
      1          6           0        1.699104   -2.563262    3.671276
      2          6           0        0.245440   -2.563262    3.671276
      3          6           0        2.381005   -2.563262    4.933593
      4          6           0       -0.436462   -2.563262    4.933593
      5          6           0        1.688318   -2.563262    6.106357
      6          6           0        0.256225   -2.563262    6.106357
      7          6           0        2.378663   -2.563262    2.463318
      8          6           0        1.699868   -2.563262    1.224029
      9          6           0       -0.434119   -2.563262    2.463317
     10          6           0        0.244675   -2.563262    1.224029
     11          1           0        3.466034   -2.563262    4.933260
     12          1           0        3.464380   -2.563262    2.463929
     13          1           0       -1.519835   -2.563262    2.463929
     14          1           0       -1.521490   -2.563262    4.933260
     15          1           0       -0.273024   -2.563262    7.052528
     16          1           0        2.217567   -2.563262    7.052528
     17          6           0        2.379158   -2.563262    0.000000
     18          6           0        1.699868   -2.563262   -1.224029
     19          6           0       -0.434614   -2.563262    0.000000
     20          6           0        0.244675   -2.563262   -1.224029
     21          1           0        3.464781   -2.563262    0.000000
     22          1           0       -1.520236   -2.563262    0.000000
     23          6           0        2.378663   -2.563262   -2.463318
     24          6           0        1.699104   -2.563262   -3.671276
     25          6           0       -0.434119   -2.563262   -2.463317
     26          6           0        0.245440   -2.563262   -3.671276
     27          1           0        3.464380   -2.563262   -2.463929
     28          1           0       -1.519835   -2.563262   -2.463929
     29          6           0        2.381005   -2.563262   -4.933593
     30          6           0        1.688318   -2.563262   -6.106357
     31          6           0       -0.436462   -2.563262   -4.933593
     32          6           0        0.256225   -2.563262   -6.106357
     33          1           0        3.466034   -2.563262   -4.933260
     34          1           0        2.217567   -2.563262   -7.052528
     35          1           0       -0.273024   -2.563262   -7.052528
     36          1           0       -1.521490   -2.563262   -4.933260
     37          6           0       -0.972272    3.290094    3.671276
     38          6           0       -0.972272    1.836430    3.671276
     39          6           0       -0.972272    3.971995    4.933593
     40          6           0       -0.972272    1.154529    4.933593
     41          6           0       -0.972272    3.279309    6.106357
     42          6           0       -0.972272    1.847215    6.106357
     43          6           0       -0.972272    3.969653    2.463318
     44          6           0       -0.972272    3.290859    1.224029
     45          6           0       -0.972272    1.156871    2.463317
     46          6           0       -0.972272    1.835665    1.224029
     47          1           0       -0.972272    5.057024    4.933260
     48          1           0       -0.972272    5.055370    2.463929
     49          1           0       -0.972272    0.071155    2.463929
     50          1           0       -0.972272    0.069500    4.933260
     51          1           0       -0.972272    1.317967    7.052528
     52          1           0       -0.972272    3.808557    7.052528
     53          6           0       -0.972272    3.970148    0.000000
     54          6           0       -0.972272    3.290859   -1.224029
     55          6           0       -0.972272    1.156376    0.000000
     56          6           0       -0.972272    1.835665   -1.224029
     57          1           0       -0.972272    5.055771    0.000000
     58          1           0       -0.972272    0.070755    0.000000
     59          6           0       -0.972272    3.969653   -2.463318
     60          6           0       -0.972272    3.290094   -3.671276
     61          6           0       -0.972272    1.156871   -2.463317
     62          6           0       -0.972272    1.836430   -3.671276
     63          1           0       -0.972272    5.055370   -2.463929
     64          1           0       -0.972272    0.071155   -2.463929
     65          6           0       -0.972272    3.971995   -4.933593
     66          6           0       -0.972272    3.279309   -6.106357
     67          6           0       -0.972272    1.154529   -4.933593
     68          6           0       -0.972272    1.847215   -6.106357
     69          1           0       -0.972272    5.057024   -4.933260
     70          1           0       -0.972272    3.808557   -7.052528
     71          1           0       -0.972272    1.317967   -7.052528
     72          1           0       -0.972272    0.069500   -4.933260
 ---------------------------------------------------------------------
 Rotational constants (GHZ):           0.1022153           0.0563744           0.0384464
 Leave Link  202 at Wed Sep 27 16:58:04 2023, MaxMem=  3221225472 cpu:               0.6 elap:               0.0
 (Enter /home/center/opt/aarch64/apps/gaussian16/c01/g16/l122.exe)
 Counterpoise: doing full-system calculation.
 Leave Link  122 at Wed Sep 27 16:58:06 2023, MaxMem=  3221225472 cpu:               0.2 elap:               0.0
 (Enter /home/center/opt/aarch64/apps/gaussian16/c01/g16/l301.exe)
 Standard basis: 6-311G(d,p) (5D, 7F)
 Ernie: Thresh=  0.10000D-02 Tol=  0.10000D-05 Strict=F.
 There are   528 symmetry adapted cartesian basis functions of A'  symmetry.
 There are   476 symmetry adapted cartesian basis functions of A"  symmetry.
 There are   504 symmetry adapted basis functions of A'  symmetry.
 There are   456 symmetry adapted basis functions of A"  symmetry.
   960 basis functions,  1632 primitive gaussians,  1004 cartesian basis functions
   146 alpha electrons      146 beta electrons
       nuclear repulsion energy      4594.4213106501 Hartrees.
 IExCor=  402 DFT=T Ex+Corr=B3LYP ExCW=0 ScaHFX=  0.200000
 ScaDFX=  0.800000  0.720000  1.000000  0.810000 ScalE2=  1.000000  1.000000
 IRadAn=      5 IRanWt=     -1 IRanGd=            0 ICorTp=0 IEmpDi=131
 NAtoms=   72 NActive=   72 NUniq=   40 SFac= 3.24D+00 NAtFMM=   60 NAOKFM=T Big=F
 Integral buffers will be    131072 words long.
 Raffenetti 2 integral format.
 Two-electron integral symmetry is turned on.
 R6Disp:  Grimme-D3 Dispersion energy=       -0.0787964726 Hartrees.
 Nuclear repulsion after empirical dispersion term =     4594.3425141775 Hartrees.
 Leave Link  301 at Wed Sep 27 16:58:08 2023, MaxMem=  3221225472 cpu:               1.9 elap:               0.1
 (Enter /home/center/opt/aarch64/apps/gaussian16/c01/g16/l302.exe)
 NPDir=0 NMtPBC=     1 NCelOv=     1 NCel=       1 NClECP=     1 NCelD=      1
         NCelK=      1 NCelE2=     1 NClLst=     1 CellRange=     0.0.
 One-electron integrals computed using PRISM.
 One-electron integral symmetry used in STVInt
 NBasis=   960 RedAO= T EigKep=  3.82D-05  NBF=   504   456
 NBsUse=   960 1.00D-06 EigRej= -1.00D+00 NBFU=   504   456
 Precomputing XC quadrature grid using
 IXCGrd= 4 IRadAn=           5 IRanWt=          -1 IRanGd=           0 AccXCQ= 0.00D+00.
 Generated NRdTot=       0 NPtTot=           0 NUsed=           0 NTot=          32
 NSgBfM=   989   989   989   989   989 MxSgAt=    72 MxSgA2=    72.
 Leave Link  302 at Wed Sep 27 16:58:13 2023, MaxMem=  3221225472 cpu:              65.7 elap:               2.0
 (Enter /home/center/opt/aarch64/apps/gaussian16/c01/g16/l303.exe)
 DipDrv:  MaxL=1.
 Leave Link  303 at Wed Sep 27 16:58:15 2023, MaxMem=  3221225472 cpu:              13.8 elap:               0.4
 (Enter /home/center/opt/aarch64/apps/gaussian16/c01/g16/l401.exe)
 ExpMin= 1.03D-01 ExpMax= 4.56D+03 ExpMxC= 6.82D+02 IAcc=3 IRadAn=         5 AccDes= 0.00D+00
 Harris functional with IExCor=  402 and IRadAn=       5 diagonalized for initial guess.
 HarFok:  IExCor=  402 AccDes= 0.00D+00 IRadAn=         5 IDoV= 1 UseB2=F ITyADJ=14
 ICtDFT=  3500011 ScaDFX=  1.000000  1.000000  1.000000  1.000000
 FoFCou: FMM=F IPFlag=           0 FMFlag=      100000 FMFlg1=        2000
         NFxFlg=           0 DoJE=T BraDBF=F KetDBF=T FulRan=T
         wScrn=  0.000000 ICntrl=       500 IOpCl=  0 I1Cent=   200000004 NGrid=           0
         NMat0=    1 NMatS0=      1 NMatT0=    0 NMatD0=    1 NMtDS0=    0 NMtDT0=    0
 Petite list used in FoFCou.
 Harris En= -1694.13651310794    
 JPrj=0 DoOrth=F DoCkMO=F.
 Initial guess orbital symmetries:
       Occupied  (A") (A') (A") (A') (A') (A") (A') (A") (A") (A')
                 (A") (A') (A") (A') (A") (A') (A") (A') (A') (A")
                 (A') (A") (A') (A") (A') (A') (A') (A') (A") (A')
                 (A") (A') (A") (A') (A") (A') (A") (A') (A") (A')
                 (A') (A") (A') (A") (A') (A') (A") (A") (A') (A')
                 (A") (A") (A') (A') (A') (A') (A") (A") (A') (A')
                 (A") (A") (A") (A") (A') (A') (A') (A') (A") (A")
                 (A") (A") (A') (A') (A") (A") (A') (A') (A') (A')
                 (A') (A') (A") (A") (A") (A") (A') (A") (A") (A')
                 (A') (A') (A") (A") (A') (A') (A') (A') (A") (A")
                 (A') (A') (A") (A") (A") (A") (A') (A') (A') (A')
                 (A") (A") (A') (A') (A") (A") (A') (A') (A") (A")
                 (A") (A") (A') (A') (A') (A') (A") (A") (A') (A')
                 (A") (A") (A') (A') (A") (A") (A') (A') (A') (A')
                 (A") (A") (A") (A") (A') (A')
       Virtual   (A') (A') (A") (A") (A") (A") (A') (A') (A') (A')
                 (A") (A") (A') (A') (A") (A") (A') (A") (A') (A')
                 (A') (A') (A") (A") (A') (A') (A") (A") (A') (A')
                 (A") (A') (A") (A") (A") (A') (A") (A') (A') (A')
                 (A") (A") (A') (A') (A") (A') (A") (A') (A') (A')
                 (A') (A") (A') (A") (A') (A') (A") (A') (A") (A')
                 (A") (A") (A") (A") (A') (A') (A") (A") (A") (A')
                 (A') (A") (A') (A') (A") (A') (A") (A") (A') (A")
                 (A') (A') (A') (A") (A') (A') (A") (A') (A') (A")
                 (A") (A') (A") (A") (A') (A") (A') (A') (A") (A")
                 (A') (A") (A') (A") (A") (A') (A') (A') (A') (A")
                 (A') (A') (A") (A') (A') (A") (A') (A") (A') (A")
                 (A") (A') (A") (A') (A") (A') (A") (A") (A') (A")
                 (A") (A') (A') (A") (A") (A') (A") (A') (A') (A")
                 (A') (A') (A") (A') (A") (A') (A') (A') (A') (A')
                 (A") (A") (A") (A') (A") (A') (A') (A') (A") (A")
                 (A") (A') (A') (A") (A") (A") (A') (A') (A") (A')
                 (A') (A") (A') (A") (A') (A') (A") (A") (A') (A")
                 (A') (A") (A') (A") (A') (A") (A') (A') (A") (A')
                 (A') (A") (A') (A") (A") (A') (A') (A") (A') (A')
                 (A") (A") (A') (A") (A') (A") (A') (A') (A') (A")
                 (A") (A') (A") (A") (A') (A") (A') (A") (A") (A')
                 (A') (A") (A") (A') (A") (A') (A") (A') (A') (A")
                 (A') (A') (A') (A") (A') (A") (A') (A") (A") (A")
                 (A') (A') (A") (A') (A") (A") (A') (A') (A') (A')
                 (A") (A") (A') (A") (A") (A') (A') (A") (A') (A")
                 (A') (A') (A") (A") (A') (A") (A") (A') (A") (A')
                 (A") (A') (A") (A") (A') (A') (A") (A') (A") (A')
                 (A") (A') (A") (A') (A') (A') (A") (A') (A") (A")
                 (A') (A') (A") (A') (A") (A") (A") (A") (A') (A")
                 (A") (A') (A') (A') (A") (A') (A') (A') (A") (A')
                 (A") (A") (A') (A") (A") (A') (A") (A') (A') (A')
                 (A") (A') (A") (A') (A') (A') (A") (A") (A") (A')
                 (A") (A") (A') (A") (A') (A") (A') (A') (A") (A')
                 (A') (A") (A') (A") (A') (A") (A") (A') (A') (A')
                 (A") (A") (A') (A') (A") (A') (A') (A") (A') (A')
                 (A') (A") (A') (A") (A") (A') (A") (A") (A") (A")
                 (A") (A') (A') (A") (A") (A") (A') (A') (A') (A')
                 (A") (A') (A') (A') (A') (A") (A') (A") (A') (A")
                 (A") (A') (A') (A") (A') (A") (A") (A") (A') (A')
                 (A") (A') (A') (A") (A") (A') (A') (A") (A") (A')
                 (A") (A') (A') (A') (A') (A") (A') (A") (A") (A')
                 (A') (A') (A') (A") (A") (A') (A") (A') (A') (A")
                 (A") (A") (A") (A') (A") (A') (A") (A") (A') (A')
                 (A") (A") (A') (A") (A') (A") (A') (A") (A') (A")
                 (A') (A') (A') (A") (A") (A') (A') (A") (A') (A")
                 (A') (A") (A") (A') (A') (A") (A") (A') (A") (A')
                 (A') (A") (A") (A") (A') (A") (A') (A') (A') (A")
                 (A") (A') (A') (A') (A") (A') (A") (A") (A") (A')
                 (A") (A") (A') (A") (A") (A") (A") (A') (A") (A')
                 (A') (A") (A') (A') (A") (A') (A') (A') (A") (A')
                 (A") (A') (A') (A') (A") (A") (A") (A') (A") (A')
                 (A") (A") (A') (A') (A") (A") (A') (A') (A") (A')
                 (A') (A') (A") (A") (A") (A') (A') (A") (A") (A')
                 (A") (A") (A') (A') (A') (A") (A") (A") (A') (A")
                 (A') (A") (A') (A") (A') (A") (A") (A') (A') (A')
                 (A") (A") (A') (A') (A') (A") (A') (A") (A') (A")
                 (A') (A") (A") (A') (A") (A') (A") (A') (A") (A')
                 (A') (A') (A') (A") (A") (A') (A") (A') (A') (A')
                 (A") (A') (A') (A") (A") (A') (A") (A') (A') (A")
                 (A') (A") (A') (A") (A') (A") (A") (A") (A') (A')
                 (A") (A') (A") (A') (A') (A") (A") (A') (A") (A')
                 (A") (A') (A") (A') (A") (A') (A") (A") (A') (A')
                 (A') (A') (A') (A") (A") (A') (A') (A") (A") (A')
                 (A") (A") (A") (A') (A") (A") (A') (A') (A') (A')
                 (A") (A') (A') (A") (A') (A') (A") (A') (A') (A")
                 (A') (A") (A") (A") (A') (A") (A') (A') (A") (A')
                 (A') (A") (A") (A') (A") (A') (A") (A") (A') (A')
                 (A") (A') (A") (A') (A') (A") (A') (A") (A") (A")
                 (A') (A') (A") (A') (A') (A") (A') (A") (A") (A')
                 (A') (A") (A') (A") (A') (A") (A') (A") (A') (A")
                 (A') (A") (A") (A") (A') (A') (A') (A') (A") (A")
                 (A') (A') (A") (A") (A') (A') (A") (A') (A") (A')
                 (A') (A") (A') (A") (A") (A') (A") (A') (A') (A')
                 (A") (A") (A') (A") (A') (A') (A") (A') (A') (A')
                 (A') (A") (A") (A') (A") (A") (A') (A') (A") (A")
                 (A") (A') (A") (A') (A") (A") (A') (A") (A') (A")
                 (A') (A') (A") (A") (A') (A') (A') (A') (A") (A")
                 (A") (A") (A') (A') (A") (A") (A') (A') (A') (A')
                 (A") (A") (A") (A") (A') (A') (A') (A') (A") (A")
                 (A') (A') (A") (A") (A') (A') (A") (A') (A") (A')
                 (A') (A") (A') (A")
 The electronic state of the initial guess is 1-A'.
 Leave Link  401 at Wed Sep 27 16:58:21 2023, MaxMem=  3221225472 cpu:             112.1 elap:               2.8
 (Enter /home/center/opt/aarch64/apps/gaussian16/c01/g16/l502.exe)
 Integral symmetry usage will be decided dynamically.
 Closed shell SCF:
 Using DIIS extrapolation, IDIIS=  1040.
 NGot=  3221225472 LenX=  3219153746 LenY=  3218144726
 Requested convergence on RMS density matrix=1.00D-08 within 128 cycles.
 Requested convergence on MAX density matrix=1.00D-06.
 Requested convergence on             energy=1.00D-06.
 No special actions if energy rises.
 Fock matrices will be formed incrementally for  20 cycles.
 Integral accuracy reduced to 1.0D-05 until final iterations.

 Cycle   1  Pass 0  IDiag  1:
 FoFJK:  IHMeth= 1 ICntrl=       0 DoSepK=F KAlg= 0 I1Cent=           0 FoldK=F
 IRaf= 550000000 NMat=       1 IRICut=       1 DoRegI=T DoRafI=F ISym2E= 1 IDoP0=0 IntGTp=1.
 FoFCou: FMM=F IPFlag=           0 FMFlag=      100000 FMFlg1=        2000
         NFxFlg=           0 DoJE=F BraDBF=F KetDBF=F FulRan=T
         wScrn=  0.000000 ICntrl=         0 IOpCl=  0 I1Cent=           0 NGrid=           0
         NMat0=    1 NMatS0=      1 NMatT0=    0 NMatD0=    1 NMtDS0=    0 NMtDT0=    0
 Petite list used in FoFCou.
 E= -1693.16602450723    
 DIIS: error= 4.32D-02 at cycle   1 NSaved=   1.
 NSaved= 1 IEnMin= 1 EnMin= -1693.16602450723     IErMin= 1 ErrMin= 4.32D-02
 ErrMax= 4.32D-02  0.00D+00 EMaxC= 1.00D-01 BMatC= 9.02D-01 BMatP= 9.02D-01
 IDIUse=3 WtCom= 5.68D-01 WtEn= 4.32D-01
 Coeff-Com:  0.100D+01
 Coeff-En:   0.100D+01
 Coeff:      0.100D+01
 Gap=     0.067 Goal=   None    Shift=    0.000
 GapD=    0.067 DampG=0.500 DampE=0.500 DampFc=0.2500 IDamp=-1.
 Damping current iteration by 2.50D-01
 RMSDP=1.74D-03 MaxDP=8.41D-02              OVMax= 1.48D-01

 Cycle   2  Pass 0  IDiag  1:
 RMSU=  4.20D-04    CP:  9.82D-01
 E= -1693.47626363163     Delta-E=       -0.310239124393 Rises=F Damp=T
 DIIS: error= 2.56D-02 at cycle   2 NSaved=   2.
 NSaved= 2 IEnMin= 2 EnMin= -1693.47626363163     IErMin= 2 ErrMin= 2.56D-02
 ErrMax= 2.56D-02  0.00D+00 EMaxC= 1.00D-01 BMatC= 2.99D-01 BMatP= 9.02D-01
 IDIUse=3 WtCom= 7.44D-01 WtEn= 2.56D-01
 Coeff-Com: -0.120D+01 0.220D+01
 Coeff-En:   0.000D+00 0.100D+01
 Coeff:     -0.894D+00 0.189D+01
 Gap=     0.065 Goal=   None    Shift=    0.000
 RMSDP=7.12D-04 MaxDP=3.31D-02 DE=-3.10D-01 OVMax= 8.07D-02

 Cycle   3  Pass 0  IDiag  1:
 RMSU=  4.76D-04    CP:  9.57D-01  2.20D+00
 E= -1694.04341022947     Delta-E=       -0.567146597840 Rises=F Damp=F
 DIIS: error= 4.98D-03 at cycle   3 NSaved=   3.
 NSaved= 3 IEnMin= 3 EnMin= -1694.04341022947     IErMin= 3 ErrMin= 4.98D-03
 ErrMax= 4.98D-03  0.00D+00 EMaxC= 1.00D-01 BMatC= 1.19D-02 BMatP= 2.99D-01
 IDIUse=3 WtCom= 9.50D-01 WtEn= 4.98D-02
 Coeff-Com: -0.264D+00 0.536D+00 0.728D+00
 Coeff-En:   0.000D+00 0.000D+00 0.100D+01
 Coeff:     -0.250D+00 0.509D+00 0.741D+00
 Gap=     0.069 Goal=   None    Shift=    0.000
 RMSDP=2.41D-04 MaxDP=1.20D-02 DE=-5.67D-01 OVMax= 8.32D-02

 Cycle   4  Pass 0  IDiag  1:
 RMSU=  2.09D-04    CP:  9.58D-01  2.14D+00  7.57D-01
 E= -1694.03954351302     Delta-E=        0.003866716442 Rises=F Damp=F
 DIIS: error= 7.30D-03 at cycle   4 NSaved=   4.
 NSaved= 4 IEnMin= 3 EnMin= -1694.04341022947     IErMin= 3 ErrMin= 4.98D-03
 ErrMax= 7.30D-03  0.00D+00 EMaxC= 1.00D-01 BMatC= 1.36D-02 BMatP= 1.19D-02
 IDIUse=3 WtCom= 1.05D-01 WtEn= 8.95D-01
 Coeff-Com: -0.484D-01 0.122D+00 0.517D+00 0.409D+00
 Coeff-En:   0.000D+00 0.000D+00 0.556D+00 0.444D+00
 Coeff:     -0.507D-02 0.128D-01 0.552D+00 0.440D+00
 Gap=     0.066 Goal=   None    Shift=    0.000
 RMSDP=1.47D-04 MaxDP=8.43D-03 DE= 3.87D-03 OVMax= 7.14D-02

 Cycle   5  Pass 0  IDiag  1:
 RMSU=  8.14D-05    CP:  9.58D-01  2.13D+00  8.03D-01  4.25D-01
 E= -1694.05464031655     Delta-E=       -0.015096803529 Rises=F Damp=F
 DIIS: error= 2.07D-03 at cycle   5 NSaved=   5.
 NSaved= 5 IEnMin= 5 EnMin= -1694.05464031655     IErMin= 5 ErrMin= 2.07D-03
 ErrMax= 2.07D-03  0.00D+00 EMaxC= 1.00D-01 BMatC= 1.05D-03 BMatP= 1.19D-02
 IDIUse=3 WtCom= 9.79D-01 WtEn= 2.07D-02
 Coeff-Com: -0.164D-01 0.353D-01 0.246D+00 0.250D+00 0.485D+00
 Coeff-En:   0.000D+00 0.000D+00 0.000D+00 0.332D-01 0.967D+00
 Coeff:     -0.160D-01 0.346D-01 0.241D+00 0.245D+00 0.495D+00
 Gap=     0.067 Goal=   None    Shift=    0.000
 RMSDP=4.96D-05 MaxDP=3.24D-03 DE=-1.51D-02 OVMax= 2.95D-02

 Cycle   6  Pass 0  IDiag  1:
 RMSU=  2.34D-05    CP:  9.58D-01  2.14D+00  8.23D-01  5.23D-01  5.47D-01
 E= -1694.05561582869     Delta-E=       -0.000975512133 Rises=F Damp=F
 DIIS: error= 1.22D-03 at cycle   6 NSaved=   6.
 NSaved= 6 IEnMin= 6 EnMin= -1694.05561582869     IErMin= 6 ErrMin= 1.22D-03
 ErrMax= 1.22D-03  0.00D+00 EMaxC= 1.00D-01 BMatC= 2.28D-04 BMatP= 1.05D-03
 IDIUse=3 WtCom= 9.88D-01 WtEn= 1.22D-02
 Coeff-Com: -0.365D-02 0.572D-02 0.995D-01 0.116D+00 0.351D+00 0.431D+00
 Coeff-En:   0.000D+00 0.000D+00 0.000D+00 0.000D+00 0.187D+00 0.813D+00
 Coeff:     -0.361D-02 0.565D-02 0.982D-01 0.115D+00 0.349D+00 0.436D+00
 Gap=     0.066 Goal=   None    Shift=    0.000
 RMSDP=1.87D-05 MaxDP=1.59D-03 DE=-9.76D-04 OVMax= 1.37D-02

 Cycle   7  Pass 0  IDiag  1:
 RMSU=  8.85D-06    CP:  9.58D-01  2.14D+00  8.26D-01  5.04D-01  6.21D-01
                    CP:  3.71D-01
 E= -1694.05586271719     Delta-E=       -0.000246888508 Rises=F Damp=F
 DIIS: error= 3.60D-04 at cycle   7 NSaved=   7.
 NSaved= 7 IEnMin= 7 EnMin= -1694.05586271719     IErMin= 7 ErrMin= 3.60D-04
 ErrMax= 3.60D-04  0.00D+00 EMaxC= 1.00D-01 BMatC= 2.07D-05 BMatP= 2.28D-04
 IDIUse=3 WtCom= 9.96D-01 WtEn= 3.60D-03
 Coeff-Com: -0.907D-03 0.866D-03 0.541D-01 0.644D-01 0.211D+00 0.303D+00
 Coeff-Com:  0.367D+00
 Coeff-En:   0.000D+00 0.000D+00 0.000D+00 0.000D+00 0.000D+00 0.403D-01
 Coeff-En:   0.960D+00
 Coeff:     -0.904D-03 0.863D-03 0.539D-01 0.642D-01 0.211D+00 0.302D+00
 Coeff:      0.369D+00
 Gap=     0.066 Goal=   None    Shift=    0.000
 RMSDP=5.98D-06 MaxDP=3.86D-04 DE=-2.47D-04 OVMax= 3.40D-03

 Initial convergence to 1.0D-05 achieved.  Increase integral accuracy.
 Cycle   8  Pass 1  IDiag  1:
 E= -1694.05548219152     Delta-E=        0.000380525671 Rises=F Damp=F
 DIIS: error= 1.05D-03 at cycle   1 NSaved=   1.
 NSaved= 1 IEnMin= 1 EnMin= -1694.05548219152     IErMin= 1 ErrMin= 1.05D-03
 ErrMax= 1.05D-03  0.00D+00 EMaxC= 1.00D-01 BMatC= 4.66D-05 BMatP= 4.66D-05
 IDIUse=3 WtCom= 9.90D-01 WtEn= 1.05D-02
 Coeff-Com:  0.100D+01
 Coeff-En:   0.100D+01
 Coeff:      0.100D+01
 Gap=     0.067 Goal=   None    Shift=    0.000
 RMSDP=5.98D-06 MaxDP=3.86D-04 DE= 3.81D-04 OVMax= 2.60D-03

 Cycle   9  Pass 1  IDiag  1:
 RMSU=  3.78D-04    CP:  9.97D-01
 E= -1694.05552070246     Delta-E=       -0.000038510938 Rises=F Damp=F
 DIIS: error= 2.11D-04 at cycle   2 NSaved=   2.
 NSaved= 2 IEnMin= 2 EnMin= -1694.05552070246     IErMin= 2 ErrMin= 2.11D-04
 ErrMax= 2.11D-04  0.00D+00 EMaxC= 1.00D-01 BMatC= 5.82D-06 BMatP= 4.66D-05
 IDIUse=3 WtCom= 9.98D-01 WtEn= 2.11D-03
 Coeff-Com:  0.136D+00 0.864D+00
 Coeff-En:   0.000D+00 0.100D+01
 Coeff:      0.136D+00 0.864D+00
 Gap=     0.066 Goal=   None    Shift=    0.000
 RMSDP=9.70D-06 MaxDP=5.63D-04 DE=-3.85D-05 OVMax= 5.20D-03

 Cycle  10  Pass 1  IDiag  1:
 RMSU=  9.10D-06    CP:  9.97D-01  1.01D+00
 E= -1694.05548765846     Delta-E=        0.000033044004 Rises=F Damp=F
 DIIS: error= 5.23D-04 at cycle   3 NSaved=   3.
 NSaved= 3 IEnMin= 2 EnMin= -1694.05552070246     IErMin= 2 ErrMin= 2.11D-04
 ErrMax= 5.23D-04  0.00D+00 EMaxC= 1.00D-01 BMatC= 3.17D-05 BMatP= 5.82D-06
 IDIUse=3 WtCom= 3.04D-01 WtEn= 6.96D-01
 Coeff-Com: -0.105D-02 0.702D+00 0.299D+00
 Coeff-En:   0.000D+00 0.774D+00 0.226D+00
 Coeff:     -0.319D-03 0.752D+00 0.248D+00
 Gap=     0.067 Goal=   None    Shift=    0.000
 RMSDP=5.23D-06 MaxDP=3.17D-04 DE= 3.30D-05 OVMax= 3.08D-03

 Cycle  11  Pass 1  IDiag  1:
 RMSU=  1.02D-06    CP:  9.97D-01  1.01D+00  4.39D-01
 E= -1694.05552634694     Delta-E=       -0.000038688481 Rises=F Damp=F
 DIIS: error= 8.82D-05 at cycle   4 NSaved=   4.
 NSaved= 4 IEnMin= 4 EnMin= -1694.05552634694     IErMin= 4 ErrMin= 8.82D-05
 ErrMax= 8.82D-05  0.00D+00 EMaxC= 1.00D-01 BMatC= 1.31D-06 BMatP= 5.82D-06
 IDIUse=1 WtCom= 1.00D+00 WtEn= 0.00D+00
 Coeff-Com: -0.366D-02 0.454D+00 0.110D+00 0.440D+00
 Coeff:     -0.366D-02 0.454D+00 0.110D+00 0.440D+00
 Gap=     0.067 Goal=   None    Shift=    0.000
 RMSDP=1.25D-06 MaxDP=7.37D-05 DE=-3.87D-05 OVMax= 6.35D-04

 Cycle  12  Pass 1  IDiag  1:
 RMSU=  4.22D-07    CP:  9.97D-01  1.01D+00  3.11D-01  8.10D-01
 E= -1694.05552788769     Delta-E=       -0.000001540752 Rises=F Damp=F
 DIIS: error= 6.09D-06 at cycle   5 NSaved=   5.
 NSaved= 5 IEnMin= 5 EnMin= -1694.05552788769     IErMin= 5 ErrMin= 6.09D-06
 ErrMax= 6.09D-06  0.00D+00 EMaxC= 1.00D-01 BMatC= 5.49D-09 BMatP= 1.31D-06
 IDIUse=1 WtCom= 1.00D+00 WtEn= 0.00D+00
 Coeff-Com: -0.222D-02 0.266D+00 0.614D-01 0.274D+00 0.401D+00
 Coeff:     -0.222D-02 0.266D+00 0.614D-01 0.274D+00 0.401D+00
 Gap=     0.067 Goal=   None    Shift=    0.000
 RMSDP=1.12D-07 MaxDP=4.70D-06 DE=-1.54D-06 OVMax= 3.50D-05

 Cycle  13  Pass 1  IDiag  1:
 RMSU=  9.92D-08    CP:  9.97D-01  1.01D+00  3.10D-01  8.24D-01  8.83D-01
 E= -1694.05552789435     Delta-E=       -0.000000006662 Rises=F Damp=F
 DIIS: error= 1.59D-06 at cycle   6 NSaved=   6.
 NSaved= 6 IEnMin= 6 EnMin= -1694.05552789435     IErMin= 6 ErrMin= 1.59D-06
 ErrMax= 1.59D-06  0.00D+00 EMaxC= 1.00D-01 BMatC= 6.14D-10 BMatP= 5.49D-09
 IDIUse=1 WtCom= 1.00D+00 WtEn= 0.00D+00
 Coeff-Com: -0.890D-03 0.103D+00 0.231D-01 0.111D+00 0.258D+00 0.506D+00
 Coeff:     -0.890D-03 0.103D+00 0.231D-01 0.111D+00 0.258D+00 0.506D+00
 Gap=     0.067 Goal=   None    Shift=    0.000
 RMSDP=2.58D-08 MaxDP=1.66D-06 DE=-6.66D-09 OVMax= 9.82D-06

 Cycle  14  Pass 1  IDiag  1:
 RMSU=  2.20D-08    CP:  9.97D-01  1.01D+00  3.10D-01  8.23D-01  8.97D-01
                    CP:  8.83D-01
 E= -1694.05552789497     Delta-E=       -0.000000000621 Rises=F Damp=F
 DIIS: error= 3.48D-07 at cycle   7 NSaved=   7.
 NSaved= 7 IEnMin= 7 EnMin= -1694.05552789497     IErMin= 7 ErrMin= 3.48D-07
 ErrMax= 3.48D-07  0.00D+00 EMaxC= 1.00D-01 BMatC= 3.61D-11 BMatP= 6.14D-10
 IDIUse=1 WtCom= 1.00D+00 WtEn= 0.00D+00
 Coeff-Com: -0.305D-03 0.348D-01 0.769D-02 0.384D-01 0.109D+00 0.263D+00
 Coeff-Com:  0.547D+00
 Coeff:     -0.305D-03 0.348D-01 0.769D-02 0.384D-01 0.109D+00 0.263D+00
 Coeff:      0.547D+00
 Gap=     0.067 Goal=   None    Shift=    0.000
 RMSDP=1.18D-08 MaxDP=7.43D-07 DE=-6.21D-10 OVMax= 6.23D-06

 Cycle  15  Pass 1  IDiag  1:
 RMSU=  8.85D-09    CP:  9.97D-01  1.01D+00  3.10D-01  8.24D-01  8.98D-01
                    CP:  8.91D-01  6.65D-01
 E= -1694.05552789499     Delta-E=       -0.000000000017 Rises=F Damp=F
 DIIS: error= 3.21D-07 at cycle   8 NSaved=   8.
 NSaved= 8 IEnMin= 8 EnMin= -1694.05552789499     IErMin= 8 ErrMin= 3.21D-07
 ErrMax= 3.21D-07  0.00D+00 EMaxC= 1.00D-01 BMatC= 2.30D-11 BMatP= 3.61D-11
 IDIUse=1 WtCom= 1.00D+00 WtEn= 0.00D+00
 Coeff-Com: -0.184D-04 0.159D-02 0.314D-03 0.244D-02 0.243D-01 0.802D-01
 Coeff-Com:  0.447D+00 0.444D+00
 Coeff:     -0.184D-04 0.159D-02 0.314D-03 0.244D-02 0.243D-01 0.802D-01
 Coeff:      0.447D+00 0.444D+00
 Gap=     0.067 Goal=   None    Shift=    0.000
 RMSDP=5.85D-09 MaxDP=3.28D-07 DE=-1.73D-11 OVMax= 2.96D-06

 SCF Done:  E(RB3LYP) =  -1694.05552789     A.U. after   15 cycles
            NFock= 15  Conv=0.58D-08     -V/T= 2.0044
 KE= 1.686708683617D+03 PE=-1.311916057068D+04 EE= 5.144053844989D+03
 Leave Link  502 at Wed Sep 27 17:00:05 2023, MaxMem=  3221225472 cpu:            3705.0 elap:             102.2
 (Enter /home/center/opt/aarch64/apps/gaussian16/c01/g16/l601.exe)
 Copying SCF densities to generalized density rwf, IOpCl= 0 IROHF=0.

 **********************************************************************

            Population analysis using the SCF Density.

 **********************************************************************

 Orbital symmetries:
       Occupied  (A") (A') (A') (A") (A") (A') (A") (A') (A') (A")
                 (A') (A') (A") (A') (A") (A') (A") (A') (A") (A')
                 (A") (A') (A") (A') (A") (A') (A') (A") (A') (A")
                 (A") (A') (A') (A") (A') (A") (A') (A") (A') (A')
                 (A") (A') (A") (A') (A') (A') (A") (A") (A') (A')
                 (A") (A") (A') (A') (A') (A") (A') (A") (A') (A')
                 (A") (A") (A") (A") (A') (A') (A') (A') (A") (A")
                 (A") (A') (A") (A") (A') (A') (A") (A') (A') (A')
                 (A') (A") (A") (A') (A") (A") (A') (A") (A') (A")
                 (A') (A') (A') (A") (A") (A') (A") (A") (A') (A')
                 (A') (A") (A') (A') (A') (A') (A") (A") (A') (A")
                 (A') (A') (A") (A") (A") (A") (A") (A") (A') (A')
                 (A') (A') (A') (A') (A") (A") (A') (A") (A") (A")
                 (A') (A") (A') (A') (A") (A') (A") (A') (A') (A')
                 (A") (A") (A") (A") (A') (A')
       Virtual   (A') (A') (A") (A") (A") (A") (A') (A') (A') (A")
                 (A') (A') (A") (A') (A") (A') (A') (A') (A") (A")
                 (A') (A') (A") (A") (A') (A") (A') (A") (A") (A')
                 (A") (A') (A") (A') (A') (A") (A") (A') (A") (A')
                 (A') (A') (A') (A") (A') (A") (A") (A") (A') (A")
                 (A') (A') (A') (A') (A') (A") (A') (A') (A") (A')
                 (A") (A") (A") (A") (A') (A') (A") (A") (A') (A")
                 (A') (A') (A") (A') (A") (A') (A") (A") (A') (A")
                 (A') (A') (A') (A') (A') (A") (A') (A") (A') (A")
                 (A") (A') (A') (A') (A") (A") (A") (A') (A") (A')
                 (A') (A") (A") (A') (A') (A") (A') (A") (A') (A")
                 (A") (A") (A') (A') (A') (A") (A") (A") (A') (A')
                 (A') (A") (A') (A') (A') (A') (A') (A") (A") (A")
                 (A') (A') (A') (A") (A") (A') (A') (A') (A") (A')
                 (A") (A') (A") (A") (A') (A") (A') (A") (A") (A')
                 (A") (A") (A') (A') (A") (A') (A") (A') (A') (A')
                 (A") (A") (A') (A') (A") (A") (A') (A') (A") (A")
                 (A') (A") (A') (A") (A') (A') (A') (A") (A') (A")
                 (A') (A") (A') (A") (A") (A') (A") (A') (A") (A')
                 (A") (A') (A") (A') (A") (A') (A') (A") (A") (A')
                 (A") (A') (A") (A') (A') (A") (A') (A') (A") (A')
                 (A') (A") (A") (A") (A') (A') (A') (A") (A") (A')
                 (A") (A") (A") (A') (A") (A') (A') (A') (A") (A')
                 (A') (A") (A") (A') (A') (A") (A") (A') (A") (A')
                 (A') (A") (A') (A") (A") (A') (A") (A') (A") (A')
                 (A") (A') (A') (A") (A') (A") (A') (A") (A") (A')
                 (A') (A") (A") (A') (A') (A') (A") (A') (A") (A")
                 (A') (A") (A') (A") (A") (A') (A') (A") (A") (A')
                 (A") (A') (A') (A') (A") (A') (A") (A") (A') (A")
                 (A') (A') (A") (A") (A") (A') (A') (A") (A") (A')
                 (A') (A") (A") (A') (A") (A") (A') (A') (A') (A')
                 (A') (A") (A") (A') (A') (A") (A") (A') (A") (A")
                 (A') (A") (A') (A') (A') (A") (A') (A") (A") (A')
                 (A") (A") (A') (A") (A') (A") (A') (A") (A') (A')
                 (A") (A') (A') (A') (A") (A') (A") (A') (A") (A")
                 (A') (A') (A") (A") (A') (A') (A') (A') (A') (A")
                 (A') (A") (A') (A") (A') (A") (A") (A") (A") (A")
                 (A') (A") (A") (A') (A') (A") (A') (A") (A') (A")
                 (A') (A') (A') (A") (A') (A") (A') (A') (A') (A")
                 (A') (A") (A') (A") (A') (A") (A") (A') (A") (A')
                 (A') (A") (A") (A') (A") (A') (A') (A") (A') (A")
                 (A") (A') (A') (A") (A') (A') (A") (A") (A') (A')
                 (A') (A') (A") (A') (A") (A') (A') (A") (A") (A')
                 (A") (A") (A") (A') (A") (A') (A") (A') (A') (A")
                 (A') (A") (A") (A') (A") (A") (A') (A") (A') (A')
                 (A") (A') (A") (A') (A") (A') (A') (A") (A") (A')
                 (A") (A') (A") (A') (A") (A") (A') (A') (A') (A')
                 (A") (A") (A') (A") (A") (A") (A') (A") (A') (A')
                 (A') (A") (A") (A') (A') (A') (A") (A") (A') (A")
                 (A") (A") (A") (A') (A") (A") (A") (A') (A") (A')
                 (A") (A') (A') (A') (A") (A') (A') (A') (A") (A")
                 (A') (A') (A") (A') (A') (A") (A') (A") (A") (A')
                 (A") (A') (A") (A") (A') (A') (A') (A") (A") (A")
                 (A') (A") (A') (A") (A') (A") (A") (A') (A') (A')
                 (A") (A') (A") (A') (A") (A') (A") (A") (A') (A")
                 (A') (A") (A") (A') (A') (A") (A') (A") (A') (A")
                 (A') (A') (A') (A") (A") (A') (A") (A') (A") (A')
                 (A") (A') (A') (A') (A') (A") (A') (A') (A") (A")
                 (A") (A") (A') (A') (A") (A') (A") (A') (A") (A")
                 (A') (A") (A') (A") (A') (A') (A") (A') (A') (A")
                 (A') (A') (A") (A") (A') (A') (A") (A') (A") (A")
                 (A') (A') (A') (A") (A') (A') (A") (A') (A") (A')
                 (A") (A') (A") (A") (A") (A') (A") (A') (A") (A')
                 (A') (A") (A') (A') (A") (A') (A') (A") (A") (A')
                 (A") (A') (A") (A") (A") (A') (A') (A') (A') (A")
                 (A") (A') (A') (A') (A") (A') (A") (A') (A') (A")
                 (A") (A") (A') (A") (A') (A") (A') (A') (A") (A')
                 (A') (A") (A") (A') (A") (A') (A") (A") (A') (A')
                 (A') (A') (A") (A") (A') (A") (A') (A") (A") (A")
                 (A') (A') (A") (A') (A') (A") (A') (A") (A') (A")
                 (A') (A') (A") (A") (A') (A") (A') (A") (A") (A')
                 (A') (A") (A") (A") (A') (A') (A') (A') (A") (A")
                 (A') (A") (A') (A') (A") (A') (A') (A") (A") (A')
                 (A") (A') (A') (A") (A") (A') (A') (A") (A') (A")
                 (A') (A") (A') (A") (A') (A') (A") (A') (A') (A')
                 (A") (A') (A") (A") (A') (A") (A') (A') (A") (A")
                 (A") (A') (A") (A") (A') (A") (A') (A") (A') (A")
                 (A') (A') (A") (A") (A') (A') (A') (A') (A") (A")
                 (A") (A") (A') (A') (A") (A') (A") (A') (A') (A')
                 (A") (A") (A") (A") (A') (A') (A') (A") (A') (A")
                 (A') (A") (A') (A') (A") (A") (A') (A') (A") (A')
                 (A') (A") (A') (A")
 The electronic state is 1-A'.
 Alpha  occ. eigenvalues --  -10.19569 -10.19569 -10.19490 -10.19490 -10.19485
 Alpha  occ. eigenvalues --  -10.19485 -10.19375 -10.19375 -10.18607 -10.18540
 Alpha  occ. eigenvalues --  -10.18540 -10.18525 -10.18497 -10.18497 -10.18488
 Alpha  occ. eigenvalues --  -10.18488 -10.18406 -10.18406 -10.18383 -10.18383
 Alpha  occ. eigenvalues --  -10.18279 -10.18279 -10.18123 -10.18123 -10.18075
 Alpha  occ. eigenvalues --  -10.18075 -10.18039 -10.18039 -10.17968 -10.17968
 Alpha  occ. eigenvalues --  -10.17197 -10.17197 -10.17135 -10.17128 -10.17127
 Alpha  occ. eigenvalues --  -10.17125 -10.17125 -10.17055 -10.17055 -10.17006
 Alpha  occ. eigenvalues --  -10.16975 -10.16974 -10.16917 -10.16917  -0.89955
 Alpha  occ. eigenvalues --   -0.88527  -0.88464  -0.87076  -0.86141  -0.84771
 Alpha  occ. eigenvalues --   -0.83003  -0.81643  -0.80445  -0.79106  -0.78988
 Alpha  occ. eigenvalues --   -0.78923  -0.77753  -0.77506  -0.76592  -0.75194
 Alpha  occ. eigenvalues --   -0.74838  -0.73499  -0.73479  -0.72109  -0.69799
 Alpha  occ. eigenvalues --   -0.68398  -0.67927  -0.66565  -0.63321  -0.62946
 Alpha  occ. eigenvalues --   -0.61942  -0.61726  -0.61605  -0.60569  -0.60259
 Alpha  occ. eigenvalues --   -0.59891  -0.59133  -0.58496  -0.58269  -0.56917
 Alpha  occ. eigenvalues --   -0.53286  -0.53160  -0.52870  -0.51939  -0.51770
 Alpha  occ. eigenvalues --   -0.51526  -0.50239  -0.49080  -0.48851  -0.47766
 Alpha  occ. eigenvalues --   -0.47733  -0.46728  -0.46393  -0.46187  -0.46056
 Alpha  occ. eigenvalues --   -0.45376  -0.44830  -0.44696  -0.44498  -0.43751
 Alpha  occ. eigenvalues --   -0.43174  -0.43156  -0.42440  -0.42413  -0.42144
 Alpha  occ. eigenvalues --   -0.41898  -0.41790  -0.41284  -0.40982  -0.40967
 Alpha  occ. eigenvalues --   -0.40763  -0.40589  -0.40168  -0.39885  -0.39635
 Alpha  occ. eigenvalues --   -0.38808  -0.38761  -0.37434  -0.37349  -0.36894
 Alpha  occ. eigenvalues --   -0.36120  -0.35972  -0.35609  -0.34690  -0.34678
 Alpha  occ. eigenvalues --   -0.34376  -0.33647  -0.33458  -0.33307  -0.33086
 Alpha  occ. eigenvalues --   -0.32919  -0.32181  -0.31409  -0.30801  -0.30081
 Alpha  occ. eigenvalues --   -0.28977  -0.28880  -0.27666  -0.27170  -0.25848
 Alpha  occ. eigenvalues --   -0.24958  -0.23610  -0.23178  -0.21807  -0.18495
 Alpha  occ. eigenvalues --   -0.17060
 Alpha virt. eigenvalues --   -0.10407  -0.08964  -0.05112  -0.03702  -0.03394
 Alpha virt. eigenvalues --   -0.01994  -0.00850   0.00601   0.01421   0.01509
 Alpha virt. eigenvalues --    0.02122   0.02805   0.03070   0.03628   0.03933
 Alpha virt. eigenvalues --    0.03998   0.04580   0.05432   0.05580   0.05953
 Alpha virt. eigenvalues --    0.06087   0.06633   0.07205   0.07630   0.07707
 Alpha virt. eigenvalues --    0.08069   0.08757   0.09033   0.09422   0.09582
 Alpha virt. eigenvalues --    0.10649   0.10900   0.11086   0.11483   0.11912
 Alpha virt. eigenvalues --    0.12825   0.13000   0.13101   0.13234   0.14093
 Alpha virt. eigenvalues --    0.14781   0.15098   0.15988   0.16513   0.17681
 Alpha virt. eigenvalues --    0.17873   0.18106   0.18947   0.19108   0.19781
 Alpha virt. eigenvalues --    0.20193   0.20460   0.22259   0.22513   0.23759
 Alpha virt. eigenvalues --    0.23822   0.23960   0.24096   0.25050   0.25319
 Alpha virt. eigenvalues --    0.26047   0.26227   0.26920   0.27134   0.27582
 Alpha virt. eigenvalues --    0.27785   0.28173   0.28466   0.28617   0.28853
 Alpha virt. eigenvalues --    0.29001   0.29280   0.29925   0.30057   0.30179
 Alpha virt. eigenvalues --    0.30335   0.30692   0.31322   0.31361   0.31952
 Alpha virt. eigenvalues --    0.32819   0.34192   0.34341   0.35137   0.35400
 Alpha virt. eigenvalues --    0.35596   0.35841   0.35911   0.36691   0.36734
 Alpha virt. eigenvalues --    0.37027   0.37189   0.37447   0.37768   0.37994
 Alpha virt. eigenvalues --    0.38086   0.38281   0.38566   0.38693   0.38779
 Alpha virt. eigenvalues --    0.39316   0.39364   0.39567   0.39619   0.40312
 Alpha virt. eigenvalues --    0.40436   0.40563   0.40731   0.40860   0.41363
 Alpha virt. eigenvalues --    0.41770   0.42006   0.42193   0.42273   0.42345
 Alpha virt. eigenvalues --    0.42404   0.42785   0.42952   0.43137   0.43343
 Alpha virt. eigenvalues --    0.43510   0.44035   0.44655   0.44700   0.44967
 Alpha virt. eigenvalues --    0.45086   0.45557   0.45618   0.45718   0.45898
 Alpha virt. eigenvalues --    0.45962   0.46218   0.46470   0.46589   0.46749
 Alpha virt. eigenvalues --    0.46827   0.46957   0.47155   0.47395   0.47835
 Alpha virt. eigenvalues --    0.48296   0.48690   0.48825   0.48941   0.48985
 Alpha virt. eigenvalues --    0.49528   0.49995   0.50087   0.50128   0.50208
 Alpha virt. eigenvalues --    0.50738   0.50865   0.51842   0.52099   0.52230
 Alpha virt. eigenvalues --    0.52528   0.52632   0.52764   0.53425   0.54510
 Alpha virt. eigenvalues --    0.54532   0.55324   0.56059   0.56531   0.56728
 Alpha virt. eigenvalues --    0.56818   0.56857   0.57779   0.57789   0.58396
 Alpha virt. eigenvalues --    0.58846   0.58872   0.59541   0.59632   0.60142
 Alpha virt. eigenvalues --    0.60505   0.61159   0.61327   0.61343   0.61380
 Alpha virt. eigenvalues --    0.61988   0.62111   0.62538   0.62601   0.62630
 Alpha virt. eigenvalues --    0.62648   0.63181   0.63536   0.63719   0.63849
 Alpha virt. eigenvalues --    0.63981   0.64154   0.64635   0.64965   0.65460
 Alpha virt. eigenvalues --    0.65529   0.65976   0.66009   0.66602   0.67458
 Alpha virt. eigenvalues --    0.68136   0.68151   0.69359   0.70085   0.70346
 Alpha virt. eigenvalues --    0.70868   0.70924   0.71758   0.71985   0.72274
 Alpha virt. eigenvalues --    0.72895   0.72966   0.73904   0.74175   0.74328
 Alpha virt. eigenvalues --    0.74950   0.75186   0.75528   0.75982   0.76684
 Alpha virt. eigenvalues --    0.76990   0.77254   0.77903   0.78110   0.78431
 Alpha virt. eigenvalues --    0.78862   0.79188   0.79639   0.79782   0.80350
 Alpha virt. eigenvalues --    0.80947   0.81217   0.81487   0.81987   0.82685
 Alpha virt. eigenvalues --    0.82714   0.82743   0.83235   0.83557   0.83760
 Alpha virt. eigenvalues --    0.84178   0.84288   0.85142   0.85440   0.86261
 Alpha virt. eigenvalues --    0.86489   0.87339   0.87665   0.88864   0.88871
 Alpha virt. eigenvalues --    0.89517   0.89632   0.90253   0.90375   0.91141
 Alpha virt. eigenvalues --    0.91390   0.92030   0.92316   0.93445   0.94053
 Alpha virt. eigenvalues --    0.94606   0.94968   0.95680   0.95825   0.96020
 Alpha virt. eigenvalues --    0.96148   0.96181   0.96792   0.97844   0.98113
 Alpha virt. eigenvalues --    0.98426   0.99305   0.99330   0.99388   1.00394
 Alpha virt. eigenvalues --    1.00493   1.00865   1.01310   1.01885   1.02450
 Alpha virt. eigenvalues --    1.02888   1.03157   1.03510   1.03924   1.04094
 Alpha virt. eigenvalues --    1.04270   1.04768   1.05084   1.05299   1.05328
 Alpha virt. eigenvalues --    1.06160   1.06265   1.06278   1.06358   1.06858
 Alpha virt. eigenvalues --    1.07403   1.08210   1.08269   1.08412   1.08441
 Alpha virt. eigenvalues --    1.09393   1.09545   1.09972   1.10439   1.10496
 Alpha virt. eigenvalues --    1.10930   1.11085   1.11979   1.12611   1.12976
 Alpha virt. eigenvalues --    1.13171   1.13227   1.14003   1.14031   1.14297
 Alpha virt. eigenvalues --    1.14779   1.15302   1.15937   1.16206   1.17120
 Alpha virt. eigenvalues --    1.17388   1.18325   1.18414   1.19563   1.20311
 Alpha virt. eigenvalues --    1.21222   1.21940   1.22762   1.23860   1.24145
 Alpha virt. eigenvalues --    1.24474   1.25657   1.27743   1.28505   1.30489
 Alpha virt. eigenvalues --    1.30776   1.30823   1.32417   1.32823   1.33126
 Alpha virt. eigenvalues --    1.34818   1.35065   1.36112   1.36689   1.37540
 Alpha virt. eigenvalues --    1.39042   1.39292   1.39957   1.40021   1.40753
 Alpha virt. eigenvalues --    1.40847   1.41173   1.41303   1.41764   1.42086
 Alpha virt. eigenvalues --    1.42576   1.43776   1.44247   1.44732   1.45042
 Alpha virt. eigenvalues --    1.45529   1.46279   1.46852   1.46978   1.47356
 Alpha virt. eigenvalues --    1.47465   1.47780   1.48333   1.48869   1.49479
 Alpha virt. eigenvalues --    1.49531   1.49949   1.50145   1.50289   1.50698
 Alpha virt. eigenvalues --    1.50875   1.51442   1.51681   1.52449   1.53115
 Alpha virt. eigenvalues --    1.53160   1.54037   1.54425   1.54755   1.54970
 Alpha virt. eigenvalues --    1.55062   1.55123   1.55280   1.55786   1.56047
 Alpha virt. eigenvalues --    1.57166   1.57375   1.57648   1.58278   1.58385
 Alpha virt. eigenvalues --    1.59292   1.60108   1.60737   1.60813   1.61212
 Alpha virt. eigenvalues --    1.62201   1.62423   1.62695   1.63273   1.64173
 Alpha virt. eigenvalues --    1.64605   1.64936   1.66861   1.67077   1.67663
 Alpha virt. eigenvalues --    1.68756   1.69124   1.69567   1.70697   1.70718
 Alpha virt. eigenvalues --    1.70942   1.71289   1.71988   1.72046   1.72185
 Alpha virt. eigenvalues --    1.72573   1.72861   1.73351   1.73651   1.73907
 Alpha virt. eigenvalues --    1.74045   1.74445   1.74611   1.75763   1.76223
 Alpha virt. eigenvalues --    1.76993   1.78281   1.78925   1.79522   1.79888
 Alpha virt. eigenvalues --    1.80209   1.80406   1.80530   1.81126   1.81418
 Alpha virt. eigenvalues --    1.81512   1.81976   1.82169   1.82774   1.82859
 Alpha virt. eigenvalues --    1.83246   1.84548   1.84741   1.85365   1.85521
 Alpha virt. eigenvalues --    1.85826   1.86478   1.87049   1.87359   1.87864
 Alpha virt. eigenvalues --    1.88203   1.88224   1.88406   1.88519   1.88629
 Alpha virt. eigenvalues --    1.88911   1.89346   1.89353   1.90777   1.91104
 Alpha virt. eigenvalues --    1.91341   1.91414   1.91477   1.92240   1.92526
 Alpha virt. eigenvalues --    1.92698   1.93080   1.93622   1.93726   1.93951
 Alpha virt. eigenvalues --    1.94241   1.94282   1.94699   1.94874   1.95374
 Alpha virt. eigenvalues --    1.95692   1.96212   1.96444   1.96524   1.97888
 Alpha virt. eigenvalues --    1.99046   1.99662   2.00246   2.00477   2.00677
 Alpha virt. eigenvalues --    2.01341   2.01407   2.02588   2.02856   2.04116
 Alpha virt. eigenvalues --    2.05583   2.06231   2.07727   2.07870   2.08831
 Alpha virt. eigenvalues --    2.08977   2.09364   2.10710   2.10967   2.11432
 Alpha virt. eigenvalues --    2.11534   2.12274   2.13060   2.13819   2.15094
 Alpha virt. eigenvalues --    2.15326   2.16201   2.16715   2.16774   2.17550
 Alpha virt. eigenvalues --    2.17946   2.19533   2.20372   2.21585   2.21651
 Alpha virt. eigenvalues --    2.22477   2.22633   2.22943   2.23166   2.23872
 Alpha virt. eigenvalues --    2.24366   2.25478   2.25494   2.26430   2.26790
 Alpha virt. eigenvalues --    2.27192   2.27620   2.27697   2.28135   2.28194
 Alpha virt. eigenvalues --    2.28573   2.29830   2.30273   2.30897   2.31837
 Alpha virt. eigenvalues --    2.33598   2.35363   2.35409   2.36665   2.38823
 Alpha virt. eigenvalues --    2.39187   2.40111   2.40557   2.40777   2.41468
 Alpha virt. eigenvalues --    2.42617   2.43030   2.45331   2.45437   2.45514
 Alpha virt. eigenvalues --    2.45977   2.46078   2.46627   2.46902   2.50048
 Alpha virt. eigenvalues --    2.50169   2.51520   2.52129   2.53416   2.53617
 Alpha virt. eigenvalues --    2.54380   2.55060   2.55461   2.55820   2.56401
 Alpha virt. eigenvalues --    2.57168   2.58169   2.58394   2.58642   2.59425
 Alpha virt. eigenvalues --    2.59639   2.60567   2.60712   2.60732   2.61113
 Alpha virt. eigenvalues --    2.61301   2.61737   2.61950   2.62535   2.62779
 Alpha virt. eigenvalues --    2.63206   2.64181   2.64345   2.64356   2.65092
 Alpha virt. eigenvalues --    2.65173   2.65723   2.65940   2.65956   2.66826
 Alpha virt. eigenvalues --    2.67628   2.67667   2.68069   2.68314   2.68464
 Alpha virt. eigenvalues --    2.68883   2.69070   2.69333   2.69748   2.69844
 Alpha virt. eigenvalues --    2.70081   2.70814   2.70899   2.71211   2.71712
 Alpha virt. eigenvalues --    2.71871   2.72031   2.72552   2.72683   2.73454
 Alpha virt. eigenvalues --    2.73879   2.75108   2.75344   2.75572   2.75629
 Alpha virt. eigenvalues --    2.76600   2.77175   2.77373   2.78299   2.78722
 Alpha virt. eigenvalues --    2.78900   2.79295   2.79622   2.79705   2.80764
 Alpha virt. eigenvalues --    2.80917   2.81247   2.81784   2.82710   2.83097
 Alpha virt. eigenvalues --    2.83547   2.84006   2.86218   2.86275   2.86692
 Alpha virt. eigenvalues --    2.86904   2.87192   2.87596   2.88667   2.88969
 Alpha virt. eigenvalues --    2.90209   2.90554   2.91425   2.92059   2.92267
 Alpha virt. eigenvalues --    2.93063   2.93154   2.93669   2.95066   2.95159
 Alpha virt. eigenvalues --    2.96308   2.96749   2.97103   2.97755   2.98349
 Alpha virt. eigenvalues --    2.98811   3.00388   3.00838   3.04120   3.04509
 Alpha virt. eigenvalues --    3.05524   3.06187   3.07377   3.08332   3.08417
 Alpha virt. eigenvalues --    3.09834   3.10394   3.15755   3.16019   3.16373
 Alpha virt. eigenvalues --    3.17147   3.17502   3.18042   3.19791   3.20130
 Alpha virt. eigenvalues --    3.21247   3.21702   3.23196   3.24847   3.29412
 Alpha virt. eigenvalues --    3.29844   3.30244   3.30703   3.31758   3.33113
 Alpha virt. eigenvalues --    3.35370   3.35615   3.36191   3.36454   3.36824
 Alpha virt. eigenvalues --    3.37205   3.37223   3.38067   3.38229   3.39145
 Alpha virt. eigenvalues --    3.39988   3.41237   3.41606   3.43331   3.45179
 Alpha virt. eigenvalues --    3.45422   3.45964   3.46800   3.48371   3.48385
 Alpha virt. eigenvalues --    3.49792   3.50110   3.50749   3.51421   3.53130
 Alpha virt. eigenvalues --    3.54529   3.57343   3.58647   3.58716   3.59720
 Alpha virt. eigenvalues --    3.61517   3.62674   3.62697   3.63494   3.63753
 Alpha virt. eigenvalues --    3.64126   3.65598   3.66286   3.67358   3.67527
 Alpha virt. eigenvalues --    3.68121   3.68254   3.69572   3.69726   4.00150
 Alpha virt. eigenvalues --    4.00207   4.01432   4.01659   4.01933   4.01966
 Alpha virt. eigenvalues --    4.02845   4.03161   4.15764   4.16318   4.17288
 Alpha virt. eigenvalues --    4.18477   4.18920   4.19839   4.21238   4.22129
 Alpha virt. eigenvalues --    4.22328   4.23269   4.23946   4.25411   4.25707
 Alpha virt. eigenvalues --    4.28177   4.38043   4.40523   4.61963   4.64200
 Alpha virt. eigenvalues --    4.78623   4.79239   4.80019   4.80474   4.80896
 Alpha virt. eigenvalues --    4.82010   4.82025   4.82469   4.84303   4.84765
 Alpha virt. eigenvalues --   23.39121  23.41386  23.54718  23.56570  23.69413
 Alpha virt. eigenvalues --   23.70871  23.77315  23.78766  23.80543  23.81347
 Alpha virt. eigenvalues --   23.81931  23.83005  23.86056  23.87240  23.88986
 Alpha virt. eigenvalues --   23.89170  23.90240  23.90265  23.92069  23.93611
 Alpha virt. eigenvalues --   23.97025  23.97938  23.98512  23.99272  24.08594
 Alpha virt. eigenvalues --   24.09365  24.10002  24.10003  24.10809  24.11423
 Alpha virt. eigenvalues --   24.11821  24.13268  24.13314  24.13815  24.14856
 Alpha virt. eigenvalues --   24.15249  24.15279  24.15588  24.16547  24.16581
 Alpha virt. eigenvalues --   24.19921  24.19967  24.21396  24.21452
          Condensed to atoms (all electrons):
 Mulliken charges:
               1
     1  C   -0.055130
     2  C   -0.028100
     3  C   -0.050098
     4  C   -0.100337
     5  C   -0.087294
     6  C   -0.081712
     7  C   -0.003563
     8  C   -0.053907
     9  C   -0.078440
    10  C   -0.017453
    11  H    0.084725
    12  H    0.077817
    13  H    0.080257
    14  H    0.089207
    15  H    0.097909
    16  H    0.097047
    17  C   -0.007897
    18  C   -0.053907
    19  C   -0.081517
    20  C   -0.017453
    21  H    0.076493
    22  H    0.079085
    23  C   -0.003563
    24  C   -0.055130
    25  C   -0.078440
    26  C   -0.028100
    27  H    0.077817
    28  H    0.080257
    29  C   -0.050098
    30  C   -0.087294
    31  C   -0.100337
    32  C   -0.081712
    33  H    0.084725
    34  H    0.097047
    35  H    0.097909
    36  H    0.089207
    37  C   -0.024376
    38  C   -0.113365
    39  C   -0.062371
    40  C   -0.048417
    41  C   -0.086875
    42  C   -0.117225
    43  C   -0.029616
    44  C   -0.011962
    45  C   -0.010969
    46  C   -0.118859
    47  H    0.078964
    48  H    0.070707
    49  H    0.113522
    50  H    0.113145
    51  H    0.086479
    52  H    0.091464
    53  C   -0.033464
    54  C   -0.011962
    55  C   -0.016325
    56  C   -0.118859
    57  H    0.069325
    58  H    0.111955
    59  C   -0.029616
    60  C   -0.024376
    61  C   -0.010969
    62  C   -0.113365
    63  H    0.070707
    64  H    0.113522
    65  C   -0.062371
    66  C   -0.086875
    67  C   -0.048417
    68  C   -0.117225
    69  H    0.078964
    70  H    0.091464
    71  H    0.086479
    72  H    0.113145
 Sum of Mulliken charges =   0.00000
 Mulliken charges with hydrogens summed into heavy atoms:
               1
     1  C   -0.055130
     2  C   -0.028100
     3  C    0.034626
     4  C   -0.011130
     5  C    0.009752
     6  C    0.016197
     7  C    0.074254
     8  C   -0.053907
     9  C    0.001816
    10  C   -0.017453
    17  C    0.068597
    18  C   -0.053907
    19  C   -0.002432
    20  C   -0.017453
    23  C    0.074254
    24  C   -0.055130
    25  C    0.001816
    26  C   -0.028100
    29  C    0.034626
    30  C    0.009752
    31  C   -0.011130
    32  C    0.016197
    37  C   -0.024376
    38  C   -0.113365
    39  C    0.016593
    40  C    0.064729
    41  C    0.004589
    42  C   -0.030746
    43  C    0.041091
    44  C   -0.011962
    45  C    0.102553
    46  C   -0.118859
    53  C    0.035861
    54  C   -0.011962
    55  C    0.095630
    56  C   -0.118859
    59  C    0.041091
    60  C   -0.024376
    61  C    0.102553
    62  C   -0.113365
    65  C    0.016593
    66  C    0.004589
    67  C    0.064729
    68  C   -0.030746
         Mulliken charges condensed to fragments:
      1      0.008015
      2     -0.008015
 Electronic spatial extent (au):  <R**2>=          26434.6767
 Charge=              0.0000 electrons
 Dipole moment (field-independent basis, Debye):
    X=              1.0117    Y=             -1.2862    Z=              0.0000  Tot=              1.6364
 Quadrupole moment (field-independent basis, Debye-Ang):
   XX=           -245.9833   YY=           -248.9464   ZZ=           -219.2316
   XY=             -0.4460   XZ=              0.0000   YZ=              0.0000
 Traceless Quadrupole moment (field-independent basis, Debye-Ang):
   XX=             -7.9295   YY=            -10.8927   ZZ=             18.8222
   XY=             -0.4460   XZ=              0.0000   YZ=              0.0000
 Octapole moment (field-independent basis, Debye-Ang**2):
  XXX=             81.7858  YYY=            176.0134  ZZZ=              0.0000  XYY=            -17.3883
  XXY=            -71.8796  XXZ=              0.0000  XZZ=             18.0034  YZZ=            -30.3206
  YYZ=              0.0000  XYZ=              0.0000
 Hexadecapole moment (field-independent basis, Debye-Ang**3):
 XXXX=          -2655.6788 YYYY=         -11065.9094 ZZZZ=         -21005.1042 XXXY=           1838.2023
 XXXZ=              0.0000 YYYX=           1852.8351 YYYZ=              0.0000 ZZZX=              0.0000
 ZZZY=              0.0000 XXYY=          -2365.3307 XXZZ=          -4370.5304 YYZZ=          -5637.6026
 XXYZ=              0.0000 YYXZ=              0.0000 ZZXY=            542.1714
 N-N= 4.594342514177D+03 E-N=-1.311916058315D+04  KE= 1.686708683617D+03
 Symmetry A'   KE= 9.134344313381D+02
 Symmetry A"   KE= 7.732742522789D+02
 No NMR shielding tensors so no spin-rotation constants.
 Leave Link  601 at Wed Sep 27 17:00:09 2023, MaxMem=  3221225472 cpu:              52.8 elap:               1.4
 (Enter /home/center/opt/aarch64/apps/gaussian16/c01/g16/l122.exe)
 CPIOFr:  IOpCl= 0 IRwI=-1 IRwCP=  731 ICalc= -1 LCPTot=     1419224 Len1MO=     3708034 IndFrg=     1419224
 CPIOFr:  IOpCl= 0 IRwI=-1 IRwCP=  731 ICalc=  0 LCPTot=     1419224 Len1MO=     3708034 IndFrg=     5127258
 Counterpoise: doing calculation for fragment   1 using the basis set of the full-system, NewBq=T
 Leave Link  122 at Wed Sep 27 17:00:12 2023, MaxMem=  3221225472 cpu:               9.1 elap:               0.5
 (Enter /home/center/opt/aarch64/apps/gaussian16/c01/g16/l301.exe)
 Basis read from rwf:  (5D, 7F)
 No pseudopotential information found on rwf file.
 There are   528 symmetry adapted cartesian basis functions of A'  symmetry.
 There are   476 symmetry adapted cartesian basis functions of A"  symmetry.
 There are   504 symmetry adapted basis functions of A'  symmetry.
 There are   456 symmetry adapted basis functions of A"  symmetry.
   960 basis functions,  1632 primitive gaussians,  1004 cartesian basis functions
    73 alpha electrons       73 beta electrons
       nuclear repulsion energy      1494.3575060070 Hartrees.
 IExCor=  402 DFT=T Ex+Corr=B3LYP ExCW=0 ScaHFX=  0.200000
 ScaDFX=  0.800000  0.720000  1.000000  0.810000 ScalE2=  1.000000  1.000000
 IRadAn=      5 IRanWt=     -1 IRanGd=            0 ICorTp=0 IEmpDi=131
 NAtoms=   72 NActive=   72 NUniq=   40 SFac= 3.24D+00 NAtFMM=   60 NAOKFM=T Big=F
 Integral buffers will be    131072 words long.
 Raffenetti 2 integral format.
 Two-electron integral symmetry is turned on.
 R6Disp:  Grimme-D3 Dispersion energy=       -0.0303938888 Hartrees.
 Nuclear repulsion after empirical dispersion term =     1494.3271121181 Hartrees.
 No density basis found on file    718.
 Leave Link  301 at Wed Sep 27 17:00:14 2023, MaxMem=  3221225472 cpu:               4.6 elap:               0.2
 (Enter /home/center/opt/aarch64/apps/gaussian16/c01/g16/l302.exe)
 NPDir=0 NMtPBC=     1 NCelOv=     1 NCel=       1 NClECP=     1 NCelD=      1
         NCelK=      1 NCelE2=     1 NClLst=     1 CellRange=     0.0.
 One-electron integrals computed using PRISM.
 One-electron integral symmetry used in STVInt
 NBasis=   960 RedAO= T EigKep=  3.82D-05  NBF=   504   456
 NBsUse=   960 1.00D-06 EigRej= -1.00D+00 NBFU=   504   456
 Precomputing XC quadrature grid using
 IXCGrd= 4 IRadAn=           5 IRanWt=          -1 IRanGd=           0 AccXCQ= 0.00D+00.
 Generated NRdTot=       0 NPtTot=           0 NUsed=           0 NTot=          32
 NSgBfM=   989   989   989   989   989 MxSgAt=    72 MxSgA2=    72.
 Leave Link  302 at Wed Sep 27 17:00:18 2023, MaxMem=  3221225472 cpu:              59.0 elap:               1.6
 (Enter /home/center/opt/aarch64/apps/gaussian16/c01/g16/l303.exe)
 DipDrv:  MaxL=1.
 Leave Link  303 at Wed Sep 27 17:00:21 2023, MaxMem=  3221225472 cpu:              13.0 elap:               0.4
 (Enter /home/center/opt/aarch64/apps/gaussian16/c01/g16/l401.exe)
 ExpMin= 1.03D-01 ExpMax= 4.56D+03 ExpMxC= 6.82D+02 IAcc=3 IRadAn=         5 AccDes= 0.00D+00
 Harris functional with IExCor=  402 and IRadAn=       5 diagonalized for initial guess.
 HarFok:  IExCor=  402 AccDes= 0.00D+00 IRadAn=         5 IDoV= 1 UseB2=F ITyADJ=14
 ICtDFT=  3500011 ScaDFX=  1.000000  1.000000  1.000000  1.000000
 FoFCou: FMM=F IPFlag=           0 FMFlag=      100000 FMFlg1=        2000
         NFxFlg=           0 DoJE=T BraDBF=F KetDBF=T FulRan=T
         wScrn=  0.000000 ICntrl=       500 IOpCl=  0 I1Cent=   200000004 NGrid=           0
         NMat0=    1 NMatS0=      1 NMatT0=    0 NMatD0=    1 NMtDS0=    0 NMtDT0=    0
 Petite list used in FoFCou.
 Harris En= -847.065707079190    
 JPrj=0 DoOrth=F DoCkMO=F.
 Initial guess orbital symmetries:
       Occupied  (A") (A') (A') (A") (A") (A') (A") (A') (A') (A")
                 (A") (A') (A') (A') (A") (A') (A") (A') (A") (A')
                 (A') (A") (A') (A") (A') (A") (A') (A') (A") (A')
                 (A") (A") (A') (A') (A") (A") (A') (A") (A') (A')
                 (A') (A") (A") (A") (A') (A') (A") (A') (A') (A")
                 (A') (A") (A") (A') (A') (A") (A') (A") (A') (A")
                 (A") (A') (A') (A") (A') (A") (A') (A") (A') (A')
                 (A") (A") (A')
       Virtual   (A') (A") (A") (A') (A') (A") (A') (A") (A') (A")
                 (A') (A') (A") (A') (A") (A') (A") (A') (A') (A")
                 (A") (A') (A") (A') (A") (A') (A') (A') (A') (A")
                 (A') (A") (A') (A") (A") (A') (A') (A") (A") (A')
                 (A') (A") (A") (A') (A") (A') (A') (A") (A") (A')
                 (A") (A') (A") (A') (A') (A') (A") (A") (A') (A")
                 (A') (A') (A") (A") (A') (A') (A') (A") (A") (A')
                 (A') (A") (A") (A') (A") (A') (A') (A') (A") (A')
                 (A') (A') (A") (A') (A") (A") (A') (A") (A') (A")
                 (A") (A") (A") (A') (A') (A") (A") (A') (A') (A')
                 (A') (A") (A') (A') (A') (A") (A') (A") (A") (A')
                 (A') (A") (A") (A') (A") (A") (A') (A") (A') (A")
                 (A') (A") (A') (A") (A') (A') (A') (A") (A') (A')
                 (A") (A') (A") (A') (A") (A') (A") (A') (A') (A")
                 (A') (A") (A') (A") (A') (A") (A") (A") (A') (A')
                 (A") (A") (A') (A") (A') (A") (A') (A') (A') (A")
                 (A') (A') (A") (A") (A') (A") (A') (A") (A') (A")
                 (A') (A') (A") (A") (A') (A') (A") (A") (A') (A")
                 (A') (A") (A') (A") (A') (A") (A') (A') (A") (A")
                 (A') (A') (A') (A") (A') (A") (A') (A') (A") (A")
                 (A') (A") (A") (A') (A") (A') (A") (A') (A") (A')
                 (A') (A") (A') (A") (A') (A") (A') (A") (A") (A")
                 (A') (A') (A') (A") (A') (A") (A') (A') (A") (A')
                 (A') (A") (A') (A') (A") (A") (A") (A") (A') (A")
                 (A") (A') (A') (A") (A') (A') (A') (A") (A") (A')
                 (A") (A") (A") (A') (A') (A') (A') (A') (A") (A")
                 (A") (A") (A') (A') (A') (A') (A") (A") (A') (A')
                 (A") (A') (A") (A") (A") (A') (A") (A') (A') (A')
                 (A") (A") (A") (A') (A') (A') (A") (A') (A') (A")
                 (A") (A") (A') (A') (A') (A") (A') (A') (A") (A')
                 (A") (A') (A") (A") (A') (A") (A") (A") (A') (A")
                 (A") (A') (A') (A') (A') (A') (A") (A') (A") (A")
                 (A') (A") (A') (A") (A') (A') (A") (A') (A") (A')
                 (A") (A') (A') (A') (A') (A") (A") (A') (A') (A")
                 (A") (A') (A") (A") (A') (A") (A') (A") (A') (A')
                 (A') (A") (A") (A') (A") (A') (A") (A') (A') (A')
                 (A') (A") (A') (A") (A") (A") (A') (A") (A') (A")
                 (A") (A') (A') (A") (A') (A") (A') (A") (A") (A')
                 (A") (A') (A") (A') (A") (A') (A') (A") (A') (A")
                 (A') (A") (A') (A") (A') (A') (A") (A") (A') (A")
                 (A") (A') (A') (A") (A") (A') (A") (A') (A') (A")
                 (A') (A") (A') (A') (A") (A') (A") (A') (A") (A')
                 (A") (A') (A") (A') (A") (A') (A") (A") (A') (A")
                 (A") (A') (A') (A') (A') (A') (A") (A") (A") (A')
                 (A") (A') (A") (A') (A") (A') (A') (A") (A') (A")
                 (A') (A") (A') (A') (A') (A") (A") (A') (A") (A")
                 (A") (A') (A') (A") (A') (A") (A") (A') (A') (A')
                 (A") (A') (A") (A') (A") (A") (A") (A') (A') (A")
                 (A') (A") (A") (A') (A") (A') (A') (A") (A") (A')
                 (A') (A") (A') (A') (A") (A") (A') (A") (A') (A")
                 (A') (A") (A') (A") (A') (A') (A") (A') (A") (A")
                 (A') (A') (A") (A') (A") (A") (A") (A') (A') (A')
                 (A") (A") (A') (A') (A") (A") (A') (A") (A') (A')
                 (A") (A') (A') (A") (A') (A") (A') (A') (A") (A')
                 (A") (A") (A') (A") (A') (A') (A") (A') (A') (A")
                 (A") (A') (A") (A') (A') (A") (A") (A') (A') (A")
                 (A") (A') (A') (A") (A") (A") (A') (A') (A') (A")
                 (A') (A") (A') (A") (A') (A') (A") (A') (A") (A')
                 (A") (A") (A") (A') (A") (A') (A") (A') (A') (A")
                 (A') (A') (A') (A") (A') (A") (A') (A") (A") (A')
                 (A") (A') (A") (A") (A') (A") (A') (A') (A') (A")
                 (A") (A') (A') (A") (A') (A") (A') (A") (A') (A')
                 (A") (A') (A") (A") (A') (A") (A") (A') (A') (A")
                 (A") (A') (A") (A") (A") (A') (A') (A') (A') (A')
                 (A") (A") (A') (A") (A') (A") (A') (A') (A") (A")
                 (A') (A") (A') (A") (A') (A") (A') (A") (A") (A')
                 (A") (A') (A") (A') (A") (A') (A") (A') (A") (A')
                 (A') (A") (A") (A') (A') (A") (A') (A") (A') (A')
                 (A") (A') (A") (A') (A') (A") (A") (A') (A') (A")
                 (A') (A") (A') (A') (A") (A") (A') (A") (A') (A')
[...]
                 (A") (A') (A') (A') (A") (A') (A") (A") (A") (A')
                 (A') (A") (A') (A") (A") (A') (A") (A') (A') (A')
                 (A') (A') (A") (A") (A") (A") (A') (A") (A') (A")
                 (A') (A') (A') (A") (A") (A') (A') (A") (A') (A")
                 (A') (A") (A") (A") (A') (A') (A") (A') (A') (A")
                 (A') (A") (A") (A') (A') (A") (A') (A") (A') (A")
                 (A") (A') (A') (A') (A') (A") (A") (A") (A') (A")
                 (A') (A") (A') (A") (A') (A') (A") (A") (A') (A")
                 (A') (A") (A') (A") (A') (A') (A") (A') (A") (A")
                 (A') (A") (A') (A') (A") (A") (A') (A") (A') (A")
                 (A') (A') (A") (A') (A') (A") (A") (A') (A') (A')
                 (A") (A') (A") (A") (A") (A") (A') (A") (A') (A')
                 (A") (A') (A") (A') (A') (A') (A") (A') (A") (A')
                 (A") (A") (A') (A') (A") (A") (A') (A') (A") (A')
                 (A') (A') (A') (A") (A") (A") (A") (A') (A') (A")
                 (A') (A") (A") (A') (A") (A') (A") (A') (A") (A')
                 (A") (A') (A') (A") (A') (A") (A") (A') (A') (A")
                 (A") (A') (A') (A") (A") (A') (A") (A") (A") (A')
                 (A') (A") (A') (A') (A") (A') (A') (A") (A') (A")
                 (A") (A') (A") (A') (A') (A") (A") (A") (A') (A')
                 (A") (A') (A') (A") (A") (A") (A') (A") (A') (A')
                 (A") (A') (A") (A') (A") (A') (A') (A') (A") (A')
                 (A") (A") (A') (A') (A") (A") (A') (A") (A') (A")
                 (A') (A') (A") (A") (A') (A') (A") (A') (A') (A')
                 (A") (A") (A') (A") (A') (A") (A') (A") (A') (A')
                 (A') (A") (A") (A") (A') (A") (A') (A') (A') (A")
                 (A") (A') (A") (A') (A') (A") (A') (A") (A") (A')
                 (A') (A") (A') (A") (A") (A') (A') (A") (A') (A")
                 (A') (A") (A') (A") (A') (A") (A") (A') (A') (A")
                 (A') (A") (A') (A') (A") (A") (A') (A") (A') (A')
                 (A") (A') (A") (A') (A') (A") (A') (A") (A') (A")
                 (A") (A') (A") (A') (A") (A') (A") (A') (A') (A")
                 (A") (A') (A") (A') (A') (A") (A") (A') (A') (A")
                 (A') (A") (A') (A") (A') (A') (A")
 The electronic state is 1-A'.
 Alpha  occ. eigenvalues --  -10.18931 -10.18930 -10.18896 -10.18895 -10.18848
 Alpha  occ. eigenvalues --  -10.18848 -10.18813 -10.18813 -10.17956 -10.17955
 Alpha  occ. eigenvalues --  -10.17920 -10.17920 -10.17919 -10.17919 -10.17875
 Alpha  occ. eigenvalues --  -10.17875 -10.17863 -10.17863 -10.17808 -10.17808
 Alpha  occ. eigenvalues --  -10.17781 -10.17781  -0.89340  -0.87865  -0.85549
 Alpha  occ. eigenvalues --   -0.82415  -0.79820  -0.78521  -0.78314  -0.75991
 Alpha  occ. eigenvalues --   -0.74255  -0.72901  -0.69196  -0.67344  -0.62728
 Alpha  occ. eigenvalues --   -0.62370  -0.61108  -0.59964  -0.59301  -0.57689
 Alpha  occ. eigenvalues --   -0.52709  -0.52573  -0.52293  -0.49654  -0.48513
 Alpha  occ. eigenvalues --   -0.47160  -0.46110  -0.45590  -0.45476  -0.43928
 Alpha  occ. eigenvalues --   -0.43182  -0.42578  -0.41808  -0.41572  -0.41386
 Alpha  occ. eigenvalues --   -0.40692  -0.40405  -0.39579  -0.38193  -0.36732
 Alpha  occ. eigenvalues --   -0.36341  -0.35550  -0.34094  -0.33809  -0.33058
 Alpha  occ. eigenvalues --   -0.32930  -0.31612  -0.29665  -0.28406  -0.26623
 Alpha  occ. eigenvalues --   -0.24364  -0.22582  -0.17855
 Alpha virt. eigenvalues --   -0.09755  -0.04464  -0.02747  -0.00147   0.02073
 Alpha virt. eigenvalues --    0.02370   0.03189   0.04746   0.04859   0.04871
 Alpha virt. eigenvalues --    0.06161   0.06575   0.07968   0.08162   0.08303
 Alpha virt. eigenvalues --    0.09607   0.10049   0.11524   0.11533   0.13796
 Alpha virt. eigenvalues --    0.14111   0.14670   0.18092   0.18194   0.18832
 Alpha virt. eigenvalues --    0.19391   0.22815   0.23002   0.24379   0.24942
 Alpha virt. eigenvalues --    0.25581   0.27528   0.27575   0.28012   0.28228
 Alpha virt. eigenvalues --    0.28947   0.29389   0.30158   0.30759   0.31175
 Alpha virt. eigenvalues --    0.32897   0.34528   0.36420   0.36484   0.37134
 Alpha virt. eigenvalues --    0.37503   0.37629   0.37651   0.38116   0.38643
 Alpha virt. eigenvalues --    0.39094   0.39439   0.39739   0.40236   0.40435
 Alpha virt. eigenvalues --    0.41918   0.41926   0.41940   0.42289   0.42318
 Alpha virt. eigenvalues --    0.42643   0.43748   0.44233   0.44835   0.45295
 Alpha virt. eigenvalues --    0.45683   0.45924   0.45953   0.46379   0.47165
 Alpha virt. eigenvalues --    0.47805   0.47809   0.47978   0.48073   0.48231
 Alpha virt. eigenvalues --    0.48568   0.49414   0.49572   0.51377   0.51846
 Alpha virt. eigenvalues --    0.52370   0.53118   0.53671   0.55998   0.57923
 Alpha virt. eigenvalues --    0.57955   0.59048   0.59201   0.60433   0.60585
 Alpha virt. eigenvalues --    0.60693   0.61101   0.61690   0.62105   0.62173
 Alpha virt. eigenvalues --    0.63432   0.63481   0.64458   0.64535   0.65533
 Alpha virt. eigenvalues --    0.66693   0.66910   0.67680   0.67724   0.70658
 Alpha virt. eigenvalues --    0.71305   0.71405   0.71494   0.72803   0.73989
 Alpha virt. eigenvalues --    0.75405   0.75894   0.76289   0.77801   0.77809
 Alpha virt. eigenvalues --    0.78943   0.79160   0.79723   0.81162   0.81509
 Alpha virt. eigenvalues --    0.82881   0.83001   0.84383   0.84585   0.84713
 Alpha virt. eigenvalues --    0.88087   0.89711   0.89765   0.91536   0.92083
 Alpha virt. eigenvalues --    0.92578   0.93749   0.95806   0.96107   0.96442
 Alpha virt. eigenvalues --    0.96590   0.96905   0.98547   1.00356   1.01118
 Alpha virt. eigenvalues --    1.02686   1.03027   1.03354   1.04405   1.05244
 Alpha virt. eigenvalues --    1.05439   1.05525   1.05950   1.07395   1.07547
 Alpha virt. eigenvalues --    1.07686   1.08438   1.10005   1.10036   1.12070
 Alpha virt. eigenvalues --    1.13223   1.13544   1.13650   1.14526   1.15341
 Alpha virt. eigenvalues --    1.17432   1.18332   1.19657   1.20432   1.23014
 Alpha virt. eigenvalues --    1.23618   1.27884   1.28234   1.30579   1.32076
 Alpha virt. eigenvalues --    1.32743   1.34942   1.37641   1.39236   1.39896
 Alpha virt. eigenvalues --    1.39942   1.40725   1.42751   1.43476   1.43554
 Alpha virt. eigenvalues --    1.45057   1.46086   1.47119   1.47538   1.48841
 Alpha virt. eigenvalues --    1.49280   1.49417   1.50258   1.50674   1.52268
 Alpha virt. eigenvalues --    1.52650   1.53402   1.54331   1.54372   1.54781
 Alpha virt. eigenvalues --    1.54807   1.57107   1.57715   1.58569   1.59882
 Alpha virt. eigenvalues --    1.60106   1.62692   1.63242   1.64856   1.66641
 Alpha virt. eigenvalues --    1.69292   1.69605   1.69709   1.70649   1.71804
 Alpha virt. eigenvalues --    1.72459   1.72619   1.73075   1.73096   1.73680
 Alpha virt. eigenvalues --    1.77494   1.78519   1.79157   1.79419   1.80511
 Alpha virt. eigenvalues --    1.81616   1.81887   1.82058   1.83581   1.84039
 Alpha virt. eigenvalues --    1.85487   1.87392   1.87456   1.87577   1.87728
 Alpha virt. eigenvalues --    1.88131   1.88613   1.90743   1.91387   1.92190
 Alpha virt. eigenvalues --    1.92193   1.92572   1.92670   1.93517   1.93938
 Alpha virt. eigenvalues --    1.94544   1.95483   1.97262   1.99429   2.00088
 Alpha virt. eigenvalues --    2.00602   2.01362   2.03019   2.05757   2.08293
 Alpha virt. eigenvalues --    2.09111   2.09256   2.09792   2.12192   2.14098
 Alpha virt. eigenvalues --    2.15528   2.15584   2.17200   2.19751   2.20833
 Alpha virt. eigenvalues --    2.21576   2.22525   2.23381   2.24503   2.26441
 Alpha virt. eigenvalues --    2.26972   2.27242   2.27719   2.28046   2.29391
 Alpha virt. eigenvalues --    2.33301   2.35725   2.39155   2.39384   2.40817
 Alpha virt. eigenvalues --    2.42649   2.43076   2.45776   2.45994   2.46870
 Alpha virt. eigenvalues --    2.51623   2.51954   2.53354   2.53485   2.55138
 Alpha virt. eigenvalues --    2.56159   2.58701   2.58838   2.59764   2.59776
 Alpha virt. eigenvalues --    2.60682   2.61147   2.61719   2.62222   2.63349
 Alpha virt. eigenvalues --    2.63999   2.64478   2.66054   2.66794   2.67121
 Alpha virt. eigenvalues --    2.67374   2.68356   2.68872   2.68876   2.69372
 Alpha virt. eigenvalues --    2.69557   2.69907   2.70083   2.70281   2.73482
 Alpha virt. eigenvalues --    2.74771   2.74836   2.76066   2.77101   2.77577
 Alpha virt. eigenvalues --    2.78232   2.78455   2.78850   2.80822   2.82359
 Alpha virt. eigenvalues --    2.85535   2.85993   2.86737   2.87294   2.90966
 Alpha virt. eigenvalues --    2.91783   2.92195   2.93676   2.95232   2.95887
 Alpha virt. eigenvalues --    2.99270   2.99858   3.03165   3.05604   3.06852
 Alpha virt. eigenvalues --    3.07371   3.15988   3.16029   3.16647   3.19843
 Alpha virt. eigenvalues --    3.20017   3.23601   3.29134   3.29680   3.31610
 Alpha virt. eigenvalues --    3.35095   3.35458   3.35677   3.35858   3.38023
 Alpha virt. eigenvalues --    3.39887   3.41413   3.44960   3.45362   3.47993
 Alpha virt. eigenvalues --    3.48278   3.50401   3.53073   3.57439   3.58649
 Alpha virt. eigenvalues --    3.61466   3.62620   3.63208   3.63698   3.65910
 Alpha virt. eigenvalues --    3.67534   3.67678   4.00384   4.00442   4.01859
 Alpha virt. eigenvalues --    4.02182   4.16133   4.16678   4.17360   4.21240
 Alpha virt. eigenvalues --    4.22396   4.22517   4.25488   4.38492   4.62290
 Alpha virt. eigenvalues --    4.79179   4.79740   4.80562   4.82562   4.83014
 Alpha virt. eigenvalues --   23.39176  23.54541  23.69085  23.77378  23.80419
 Alpha virt. eigenvalues --   23.81537  23.86099  23.89067  23.89154  23.92210
 Alpha virt. eigenvalues --   23.97563  23.98365  24.09049  24.09932  24.10529
 Alpha virt. eigenvalues --   24.12220  24.13779  24.14375  24.15775  24.15810
 Alpha virt. eigenvalues --   24.20452  24.20497
          Condensed to atoms (all electrons):
 Mulliken charges:
               1
     1  C    0.000000
     2  C    0.000000
     3  C    0.000000
     4  C    0.000000
     5  C    0.000000
     6  C    0.000000
     7  C    0.000000
     8  C    0.000000
     9  C    0.000000
    10  C    0.000000
    11  H    0.000000
    12  H    0.000000
    13  H    0.000000
    14  H    0.000000
    15  H    0.000000
    16  H    0.000000
    17  C    0.000000
    18  C    0.000000
    19  C    0.000000
    20  C    0.000000
    21  H    0.000000
    22  H    0.000000
    23  C    0.000000
    24  C    0.000000
    25  C    0.000000
    26  C    0.000000
    27  H    0.000000
    28  H    0.000000
    29  C    0.000000
    30  C    0.000000
    31  C    0.000000
    32  C    0.000000
    33  H    0.000000
    34  H    0.000000
    35  H    0.000000
    36  H    0.000000
    37  C   -0.059168
    38  C   -0.059168
    39  C   -0.055977
    40  C   -0.055977
    41  C   -0.092198
    42  C   -0.092198
    43  C   -0.016525
    44  C   -0.054498
    45  C   -0.016525
    46  C   -0.054498
    47  H    0.082122
    48  H    0.074853
    49  H    0.074853
    50  H    0.082122
    51  H    0.094847
    52  H    0.094847
    53  C   -0.020341
    54  C   -0.054498
    55  C   -0.020341
    56  C   -0.054498
    57  H    0.073428
    58  H    0.073428
    59  C   -0.016525
    60  C   -0.059168
    61  C   -0.016525
    62  C   -0.059168
    63  H    0.074853
    64  H    0.074853
    65  C   -0.055977
    66  C   -0.092198
    67  C   -0.055977
    68  C   -0.092198
    69  H    0.082122
    70  H    0.094847
    71  H    0.094847
    72  H    0.082122
 Sum of Mulliken charges =   0.00000
 Mulliken charges with hydrogens summed into heavy atoms:
               1
     1  C    0.000000
     2  C    0.000000
     3  C    0.000000
     4  C    0.000000
     5  C    0.000000
     6  C    0.000000
     7  C    0.000000
     8  C    0.000000
     9  C    0.000000
    10  C    0.000000
    17  C    0.000000
    18  C    0.000000
    19  C    0.000000
    20  C    0.000000
    23  C    0.000000
    24  C    0.000000
    25  C    0.000000
    26  C    0.000000
    29  C    0.000000
    30  C    0.000000
    31  C    0.000000
    32  C    0.000000
    37  C   -0.059168
    38  C   -0.059168
    39  C    0.026144
    40  C    0.026144
    41  C    0.002649
    42  C    0.002649
    43  C    0.058328
    44  C   -0.054498
    45  C    0.058328
    46  C   -0.054498
    53  C    0.053087
    54  C   -0.054498
    55  C    0.053087
    56  C   -0.054498
    59  C    0.058328
    60  C   -0.059168
    61  C    0.058328
    62  C   -0.059168
    65  C    0.026144
    66  C    0.002649
    67  C    0.026144
    68  C    0.002649
         Mulliken charges condensed to fragments:
      1      0.000000
      2      0.000000
 Electronic spatial extent (au):  <R**2>=          22332.5719
 Charge=              0.0000 electrons
 Dipole moment (field-independent basis, Debye):
    X=              0.0000    Y=              0.0000    Z=              0.0000  Tot=              0.0000
 Quadrupole moment (field-independent basis, Debye-Ang):
   XX=           -136.3921   YY=           -110.7480   ZZ=           -109.0115
   XY=              0.0000   XZ=              0.0000   YZ=              0.0000
 Traceless Quadrupole moment (field-independent basis, Debye-Ang):
   XX=            -17.6749   YY=              7.9692   ZZ=              9.7057
   XY=              0.0000   XZ=              0.0000   YZ=              0.0000
 Octapole moment (field-independent basis, Debye-Ang**2):
  XXX=           1446.6563  YYY=           1174.6603  ZZZ=              0.0000  XYY=            391.5534
  XXY=            482.2188  XXZ=              0.0000  XZZ=            385.4138  YZZ=            385.4138
  YYZ=              0.0000  XYZ=              0.0000
 Hexadecapole moment (field-independent basis, Debye-Ang**3):
 XXXX=         -10383.8084 YYYY=          -9422.8192 ZZZZ=         -10461.4324 XXXY=          -5114.7022
 XXXZ=              0.0000 YYYX=          -4153.0512 YYYZ=              0.0000 ZZZX=              0.0000
 ZZZY=              0.0000 XXYY=          -3345.6665 XXZZ=          -3570.5755 YYZZ=          -3331.8578
 XXYZ=              0.0000 YYXZ=              0.0000 ZZXY=          -1362.6434
 N-N= 1.494327111783D+03 E-N=-4.953709175103D+03  KE= 8.433374904921D+02
 Symmetry A'   KE= 4.567052305385D+02
 Symmetry A"   KE= 3.866322599536D+02
 No NMR shielding tensors so no spin-rotation constants.
 Leave Link  601 at Wed Sep 27 17:17:59 2023, MaxMem=  3221225472 cpu:              13.1 elap:               0.5
 (Enter /home/center/opt/aarch64/apps/gaussian16/c01/g16/l122.exe)
 CPIOFr:  IOpCl= 0 IRwI=-1 IRwCP=  731 ICalc=  4 LCPTot=     1419224 Len1MO=     3708034 IndFrg=    19959394
 Restoring MOs from calculation   1 to rwf.
 CPIOFr:  IOpCl= 0 IRwI=-2 IRwCP=  731 ICalc=  0 LCPTot=     1419224 Len1MO=     3708034 IndFrg=     5127258
 Counterpoise corrected energy =   -1694.040229966791
                   BSSE energy =      -0.000000958295
              sum of fragments =   -1694.039683044254
           complexation energy =      -0.34 kcal/mole (raw)
           complexation energy =      -0.34 kcal/mole (corrected)
 Leave Link  122 at Wed Sep 27 17:18:02 2023, MaxMem=  3221225472 cpu:               8.3 elap:               0.4
 (Enter /home/center/opt/aarch64/apps/gaussian16/c01/g16/l9999.exe)

 Test job not archived.
 1\1\GINC-FX0470\SP\RB3LYP\6-311G(d,p)\C44H28\Z40145W\27-Sep-2023\0\\#P
  TEST b3lyp/6-311G** EmpiricalDispersion=GD3 counterpoise=2\\pentacene
 _A1=0_A2=0_A3=45_p2\\0,1\C,0,-0.5039478476,0.5239478476,-3.6612755801\
 C,0,0.5239480325,-0.5039480325,-3.6612755629\C,0,-0.9861248463,1.00612
 48463,-4.9235927708\C,0,1.0061250889,-0.9861250889,-4.9235926697\C,0,-
 0.4963213507,0.5163213507,-6.096356521\C,0,0.5163216812,-0.4963216812,
 -6.0963564796\C,0,-0.9844684311,1.0044684311,-2.4533174875\C,0,-0.5044
 88426,0.524488426,-1.2140288145\C,0,1.0044685359,-0.9844685359,-2.4533
 173917\C,0,0.5244885437,-0.5044885437,-1.2140288362\H,0,-1.7533559667,
 1.7733559667,-4.9232600459\H,0,-1.7521866813,1.7721866813,-2.453928581
 5\H,0,1.7721859268,-1.7521859268,-2.4539284818\H,0,1.7733558421,-1.753
 3558421,-4.9232597785\H,0,0.8905568758,-0.8705568758,-7.0425276922\H,0
 ,-0.8705565046,0.8905565046,-7.042527775\C,0,-0.9848184961,1.004818496
 1,0.0099998782\C,0,-0.5044883957,0.5244883957,1.2340295553\C,0,1.00481
 85643,-0.9848185643,0.0099998696\C,0,0.5244885146,-0.5044885146,1.2340
 295261\H,0,-1.7524699697,1.7724699697,0.0099999205\H,0,1.772468921,-1.
 752468921,0.0099999641\C,0,-0.9844683048,1.0044683048,2.4733171385\C,0
 ,-0.5039477114,0.5239477114,3.681276331\C,0,1.0044684211,-0.9844684211
 ,2.4733170835\C,0,0.5239479079,-0.5039479079,3.6812763217\H,0,-1.75218
 65527,1.7721865527,2.4739285326\H,0,1.7721858092,-1.7521858092,2.47392
 83796\C,0,-0.9861245177,1.0061245177,4.9435920588\C,0,-0.4963209372,0.
 5163209372,6.116356633\C,0,1.0061247659,-0.9861247659,4.9435919377\C,0
 ,0.5163212637,-0.4963212637,6.1163566075\H,0,-1.7533556504,1.773355650
 4,4.9432601504\H,0,-0.8705567426,0.8905567426,7.0625274368\H,0,0.89055
 70967,-0.8705570967,7.0625272142\H,0,1.7733555414,-1.7533555414,4.9432
 599297\C,0,9.4960521524,0.5239478476,-3.6612755801\C,0,10.5239480325,-
 0.5039480325,-3.6612755629\C,0,9.0138751537,1.0061248463,-4.9235927708
 \C,0,11.0061250889,-0.9861250889,-4.9235926697\C,0,9.5036786493,0.5163
 213507,-6.096356521\C,0,10.5163216812,-0.4963216812,-6.0963564796\C,0,
 9.0155315689,1.0044684311,-2.4533174875\C,0,9.495511574,0.524488426,-1
 .2140288145\C,0,11.0044685359,-0.9844685359,-2.4533173917\C,0,10.52448
 85437,-0.5044885437,-1.2140288362\H,0,8.2466440333,1.7733559667,-4.923
 2600459\H,0,8.2478133187,1.7721866813,-2.4539285815\H,0,11.7721859268,
 -1.7521859268,-2.4539284818\H,0,11.7733558421,-1.7533558421,-4.9232597
 785\H,0,10.8905568758,-0.8705568758,-7.0425276922\H,0,9.1294434954,0.8
 905565046,-7.042527775\C,0,9.0151815039,1.0048184961,0.0099998782\C,0,
 9.4955116043,0.5244883957,1.2340295553\C,0,11.0048185643,-0.9848185643
 ,0.0099998696\C,0,10.5244885146,-0.5044885146,1.2340295261\H,0,8.24753
 00303,1.7724699697,0.0099999205\H,0,11.772468921,-1.752468921,0.009999
 9641\C,0,9.0155316952,1.0044683048,2.4733171385\C,0,9.4960522886,0.523
 9477114,3.681276331\C,0,11.0044684211,-0.9844684211,2.4733170835\C,0,1
 0.5239479079,-0.5039479079,3.6812763217\H,0,8.2478134473,1.7721865527,
 2.4739285326\H,0,11.7721858092,-1.7521858092,2.4739283796\C,0,9.013875
 4823,1.0061245177,4.9435920588\C,0,9.5036790628,0.5163209372,6.1163566
 33\C,0,11.0061247659,-0.9861247659,4.9435919377\C,0,10.5163212637,-0.4
 963212637,6.1163566075\H,0,8.2466443496,1.7733556504,4.9432601504\H,0,
 9.1294432574,0.8905567426,7.0625274368\H,0,10.8905570967,-0.8705570967
 ,7.0625272142\H,0,11.7733555414,-1.7533555414,4.9432599297\\Version=Fu
 jitsu-Arm-G16RevC.01\State=1-A'\HF=-847.0198415\RMSD=3.182e-09\Dipole=
 0.0000227,-0.0000226,0.\Quadrupole=-7.6280211,-6.8130483,14.4410694,-1
 8.596404,0.,0.\PG=CS [SG(C4H4),X(C40H24)]\\@


 THE ENLIGHTENED ONE, BECAUSE HE SAW MANKIND DROWNING  
 IN THE GREAT SEA OF BIRTH, DEATH, AND SORROW, LONGED TO SAVE 
 THEM, FOR THIS HE WAS MOVED TO PITY.                         
 BECAUSE HE SAW MEN OF THE WORLD STRAYING IN FALSE PATHS, AND 
 NONE TO GUIDE THEM, FOR THIS HE WAS MOVED TO PITY.           
                     ..................                       
 BECAUSE HE SAW THE MEN OF THE WORLD PLOUGHING THEIR FIELDS,  
 SOWING THE SEED, TRAFFICKING, HUCKSTERING, BUYING, SELLING,  
 AND AT THE END WINNOWING NOTHING BUT BITTERNESS,             
 FOR THIS HE WAS MOVED TO PITY......                   
                   BUDAH'S PITY - UPSAKA SILA SUTRA           
 Job cpu time:       0 days  2 hours 33 minutes 26.3 seconds.
 Elapsed time:       0 days  0 hours  4 minutes  2.8 seconds.
 File lengths (MBytes):  RWF=    718 Int=      0 D2E=      0 Chk=    208 Scr=      1
 Normal termination of Gaussian 16 at Wed Sep 27 17:18:07 2023.
