 Entering Gaussian System, Link 0=g16
 Initial command:
 /home/center/opt/aarch64/apps/gaussian16/c01/g16/l1.exe "/data/tmp/Gtmp/1006934/Gau-49.inp" -scrdir="/data/tmp/Gtmp/1006934/"
 Entering Link 1 = /home/center/opt/aarch64/apps/gaussian16/c01/g16/l1.exe PID=        50.
  
 Copyright (c) 1988-2019, Gaussian, Inc.  All Rights Reserved.
  
 This is part of the Gaussian(R) 16 program.  It is based on
 the Gaussian(R) 09 system (copyright 2009, Gaussian, Inc.),
 the Gaussian(R) 03 system (copyright 2003, Gaussian, Inc.),
 the Gaussian(R) 98 system (copyright 1998, Gaussian, Inc.),
 the Gaussian(R) 94 system (copyright 1995, Gaussian, Inc.),
 the Gaussian 92(TM) system (copyright 1992, Gaussian, Inc.),
 the Gaussian 90(TM) system (copyright 1990, Gaussian, Inc.),
 the Gaussian 88(TM) system (copyright 1988, Gaussian, Inc.),
 the Gaussian 86(TM) system (copyright 1986, Carnegie Mellon
 University), and the Gaussian 82(TM) system (copyright 1983,
 Carnegie Mellon University). Gaussian is a federally registered
 trademark of Gaussian, Inc.
  
 This software contains proprietary and confidential information,
 including trade secrets, belonging to Gaussian, Inc.
  
 This software is provided under written license and may be
 used, copied, transmitted, or stored only in accord with that
 written license.
  
 The following legend is applicable only to US Government
 contracts under FAR:
  
                    RESTRICTED RIGHTS LEGEND
  
 Use, reproduction and disclosure by the US Government is
 subject to restrictions as set forth in subparagraphs (a)
 and (c) of the Commercial Computer Software - Restricted
 Rights clause in FAR 52.227-19.
  
 Gaussian, Inc.
 340 Quinnipiac St., Bldg. 40, Wallingford CT 06492
  
  
 ---------------------------------------------------------------
 Warning -- This program may not be used in any manner that
 competes with the business of Gaussian, Inc. or will provide
 assistance to any competitor of Gaussian, Inc.  The licensee
 of this program is prohibited from giving any competitor of
 Gaussian, Inc. access to this program.  By using this program,
 the user acknowledges that Gaussian, Inc. is engaged in the
 business of creating and licensing software in the field of
 computational chemistry and represents and warrants to the
 licensee that it is not a competitor of Gaussian, Inc. and that
 it will not use this program in any manner prohibited above.
 ---------------------------------------------------------------
  

 Cite this work as:
 Gaussian 16, Revision C.01,
 M. J. Frisch, G. W. Trucks, H. B. Schlegel, G. E. Scuseria, 
 M. A. Robb, J. R. Cheeseman, G. Scalmani, V. Barone, 
 G. A. Petersson, H. Nakatsuji, X. Li, M. Caricato, A. V. Marenich, 
 J. Bloino, B. G. Janesko, R. Gomperts, B. Mennucci, H. P. Hratchian, 
 J. V. Ortiz, A. F. Izmaylov, J. L. Sonnenberg, D. Williams-Young, 
 F. Ding, F. Lipparini, F. Egidi, J. Goings, B. Peng, A. Petrone, 
 T. Henderson, D. Ranasinghe, V. G. Zakrzewski, J. Gao, N. Rega, 
 G. Zheng, W. Liang, M. Hada, M. Ehara, K. Toyota, R. Fukuda, 
 J. Hasegawa, M. Ishida, T. Nakajima, Y. Honda, O. Kitao, H. Nakai, 
 T. Vreven, K. Throssell, J. A. Montgomery, Jr., J. E. Peralta, 
 F. Ogliaro, M. J. Bearpark, J. J. Heyd, E. N. Brothers, K. N. Kudin, 
 V. N. Staroverov, T. A. Keith, R. Kobayashi, J. Normand, 
 K. Raghavachari, A. P. Rendell, J. C. Burant, S. S. Iyengar, 
 J. Tomasi, M. Cossi, J. M. Millam, M. Klene, C. Adamo, R. Cammi, 
 J. W. Ochterski, R. L. Martin, K. Morokuma, O. Farkas, 
 J. B. Foresman, and D. J. Fox, Gaussian, Inc., Wallingford CT, 2019.
 
 ************************************************
 Gaussian 16:  Fujitsu-Arm-G16RevC.01  3-Jul-2019
                   27-Sep-2023 
 ************************************************
 %mem=24GB
 %nproc=42
 Will use up to   42 processors via shared memory.
 -------------------------------------------------------------
 #P TEST b3lyp/6-311G** EmpiricalDispersion=GD3 counterpoise=2
 -------------------------------------------------------------
 1/38=1,62=2,172=1/1;
 2/12=2,17=6,18=5,40=1/2;
 1/38=1,53=2,62=2,63=1/22;
 3/5=4,6=6,7=101,11=2,25=1,30=1,74=-5,124=31/1,2,3;
 4//1;
 5/5=2,38=5/2;
 6/7=2,8=2,9=2,10=2,28=1/1;
 1/53=2,62=2,63=1/22;
 3/5=7,6=11,7=101,11=2,25=1,30=1,74=-5,82=7,124=31/1,2,3;
 4//1;
 5/5=2,38=5/2;
 6/7=2,8=2,9=2,10=2,28=1/1;
 1/53=2,62=2,63=1/22(-4);
 99/5=1,9=1/99;
 Leave Link    1 at Wed Sep 27 16:37:39 2023, MaxMem=  3221225472 cpu:               7.1 elap:               0.2
 (Enter /home/center/opt/aarch64/apps/gaussian16/c01/g16/l101.exe)
 ----------------------------
 pentacene_A1=0_A2=0_A3=45_t1
 ----------------------------
 Symbolic Z-matrix:
 Charge =  0 Multiplicity = 1 in supermolecule
 Charge =  0 Multiplicity = 1 in fragment      1.
 Charge =  0 Multiplicity = 1 in fragment      2.
 C(Fragment=1)        -0.50395   0.52395  -3.66128 
 C(Fragment=1)         0.52395  -0.50395  -3.66128 
 C(Fragment=1)        -0.98612   1.00612  -4.92359 
 C(Fragment=1)         1.00613  -0.98613  -4.92359 
 C(Fragment=1)        -0.49632   0.51632  -6.09636 
 C(Fragment=1)         0.51632  -0.49632  -6.09636 
 C(Fragment=1)        -0.98447   1.00447  -2.45332 
 C(Fragment=1)        -0.50449   0.52449  -1.21403 
 C(Fragment=1)         1.00447  -0.98447  -2.45332 
 C(Fragment=1)         0.52449  -0.50449  -1.21403 
 H(Fragment=1)        -1.75336   1.77336  -4.92326 
 H(Fragment=1)        -1.75219   1.77219  -2.45393 
 H(Fragment=1)         1.77219  -1.75219  -2.45393 
 H(Fragment=1)         1.77336  -1.75336  -4.92326 
 H(Fragment=1)         0.89056  -0.87056  -7.04253 
 H(Fragment=1)        -0.87056   0.89056  -7.04253 
 C(Fragment=1)        -0.98482   1.00482   0.01 
 C(Fragment=1)        -0.50449   0.52449   1.23403 
 C(Fragment=1)         1.00482  -0.98482   0.01 
 C(Fragment=1)         0.52449  -0.50449   1.23403 
 H(Fragment=1)        -1.75247   1.77247   0.01 
 H(Fragment=1)         1.77247  -1.75247   0.01 
 C(Fragment=1)        -0.98447   1.00447   2.47332 
 C(Fragment=1)        -0.50395   0.52395   3.68128 
 C(Fragment=1)         1.00447  -0.98447   2.47332 
 C(Fragment=1)         0.52395  -0.50395   3.68128 
 H(Fragment=1)        -1.75219   1.77219   2.47393 
 H(Fragment=1)         1.77219  -1.75219   2.47393 
 C(Fragment=1)        -0.98612   1.00612   4.94359 
 C(Fragment=1)        -0.49632   0.51632   6.11636 
 C(Fragment=1)         1.00612  -0.98612   4.94359 
 C(Fragment=1)         0.51632  -0.49632   6.11636 
 H(Fragment=1)        -1.75336   1.77336   4.94326 
 H(Fragment=1)        -0.87056   0.89056   7.06253 
 H(Fragment=1)         0.89056  -0.87056   7.06253 
 H(Fragment=1)         1.77336  -1.75336   4.94326 
 C(Fragment=2)         3.27395   4.52395  -3.66128 
 C(Fragment=2)         2.24605   3.49605  -3.66128 
 C(Fragment=2)         3.75612   5.00612  -4.92359 
 C(Fragment=2)         1.76387   3.01387  -4.92359 
 C(Fragment=2)         3.26632   4.51632  -6.09636 
 C(Fragment=2)         2.25368   3.50368  -6.09636 
 C(Fragment=2)         3.75447   5.00447  -2.45332 
 C(Fragment=2)         3.27449   4.52449  -1.21403 
 C(Fragment=2)         1.76553   3.01553  -2.45332 
 C(Fragment=2)         2.24551   3.49551  -1.21403 
 H(Fragment=2)         4.52336   5.77336  -4.92326 
 H(Fragment=2)         4.52219   5.77219  -2.45393 
 H(Fragment=2)         0.99781   2.24781  -2.45393 
 H(Fragment=2)         0.99664   2.24664  -4.92326 
 H(Fragment=2)         1.87944   3.12944  -7.04253 
 H(Fragment=2)         3.64056   4.89056  -7.04253 
 C(Fragment=2)         3.75482   5.00482   0.01 
 C(Fragment=2)         3.27449   4.52449   1.23403 
 C(Fragment=2)         1.76518   3.01518   0.01 
 C(Fragment=2)         2.24551   3.49551   1.23403 
 H(Fragment=2)         4.52247   5.77247   0.01 
 H(Fragment=2)         0.99753   2.24753   0.01 
 C(Fragment=2)         3.75447   5.00447   2.47332 
 C(Fragment=2)         3.27395   4.52395   3.68128 
 C(Fragment=2)         1.76553   3.01553   2.47332 
 C(Fragment=2)         2.24605   3.49605   3.68128 
 H(Fragment=2)         4.52219   5.77219   2.47393 
 H(Fragment=2)         0.99781   2.24781   2.47393 
 C(Fragment=2)         3.75612   5.00612   4.94359 
 C(Fragment=2)         3.26632   4.51632   6.11636 
 C(Fragment=2)         1.76388   3.01388   4.94359 
 C(Fragment=2)         2.25368   3.50368   6.11636 
 H(Fragment=2)         4.52336   5.77336   4.94326 
 H(Fragment=2)         3.64056   4.89056   7.06253 
 H(Fragment=2)         1.87944   3.12944   7.06253 
 H(Fragment=2)         0.99664   2.24664   4.94326 
 
 ITRead=  0  0  0  0  0  0  0  0  0  0  0  0  0  0  0  0  0  0  0  0
 ITRead=  0  0  0  0  0  0  0  0  0  0  0  0  0  0  0  0  0  0  0  0
 ITRead=  0  0  0  0  0  0  0  0  0  0  0  0  0  0  0  0  0  0  0  0
 ITRead=  0  0  0  0  0  0  0  0  0  0  0  0
 MicOpt= -1 -1 -1 -1 -1 -1 -1 -1 -1 -1 -1 -1 -1 -1 -1 -1 -1 -1 -1 -1
 MicOpt= -1 -1 -1 -1 -1 -1 -1 -1 -1 -1 -1 -1 -1 -1 -1 -1 -1 -1 -1 -1
 MicOpt= -1 -1 -1 -1 -1 -1 -1 -1 -1 -1 -1 -1 -1 -1 -1 -1 -1 -1 -1 -1
 MicOpt= -1 -1 -1 -1 -1 -1 -1 -1 -1 -1 -1 -1
 NAtoms=     72 NQM=       72 NQMF=       0 NMMI=      0 NMMIF=      0
                NMic=       0 NMicF=      0.
                    Isotopes and Nuclear Properties:
 (Nuclear quadrupole moments (NQMom) in fm**2, nuclear magnetic moments (NMagM)
  in nuclear magnetons)

  Atom         1           2           3           4           5           6           7           8           9          10
 IAtWgt=          12          12          12          12          12          12          12          12          12          12
 AtmWgt=  12.0000000  12.0000000  12.0000000  12.0000000  12.0000000  12.0000000  12.0000000  12.0000000  12.0000000  12.0000000
 NucSpn=           0           0           0           0           0           0           0           0           0           0
 AtZEff=   0.0000000   0.0000000   0.0000000   0.0000000   0.0000000   0.0000000   0.0000000   0.0000000   0.0000000   0.0000000
 NQMom=    0.0000000   0.0000000   0.0000000   0.0000000   0.0000000   0.0000000   0.0000000   0.0000000   0.0000000   0.0000000
 NMagM=    0.0000000   0.0000000   0.0000000   0.0000000   0.0000000   0.0000000   0.0000000   0.0000000   0.0000000   0.0000000
 AtZNuc=   6.0000000   6.0000000   6.0000000   6.0000000   6.0000000   6.0000000   6.0000000   6.0000000   6.0000000   6.0000000

  Atom        11          12          13          14          15          16          17          18          19          20
 IAtWgt=           1           1           1           1           1           1          12          12          12          12
 AtmWgt=   1.0078250   1.0078250   1.0078250   1.0078250   1.0078250   1.0078250  12.0000000  12.0000000  12.0000000  12.0000000
 NucSpn=           1           1           1           1           1           1           0           0           0           0
 AtZEff=   0.0000000   0.0000000   0.0000000   0.0000000   0.0000000   0.0000000   0.0000000   0.0000000   0.0000000   0.0000000
 NQMom=    0.0000000   0.0000000   0.0000000   0.0000000   0.0000000   0.0000000   0.0000000   0.0000000   0.0000000   0.0000000
 NMagM=    2.7928460   2.7928460   2.7928460   2.7928460   2.7928460   2.7928460   0.0000000   0.0000000   0.0000000   0.0000000
 AtZNuc=   1.0000000   1.0000000   1.0000000   1.0000000   1.0000000   1.0000000   6.0000000   6.0000000   6.0000000   6.0000000

  Atom        21          22          23          24          25          26          27          28          29          30
 IAtWgt=           1           1          12          12          12          12           1           1          12          12
 AtmWgt=   1.0078250   1.0078250  12.0000000  12.0000000  12.0000000  12.0000000   1.0078250   1.0078250  12.0000000  12.0000000
 NucSpn=           1           1           0           0           0           0           1           1           0           0
 AtZEff=   0.0000000   0.0000000   0.0000000   0.0000000   0.0000000   0.0000000   0.0000000   0.0000000   0.0000000   0.0000000
 NQMom=    0.0000000   0.0000000   0.0000000   0.0000000   0.0000000   0.0000000   0.0000000   0.0000000   0.0000000   0.0000000
 NMagM=    2.7928460   2.7928460   0.0000000   0.0000000   0.0000000   0.0000000   2.7928460   2.7928460   0.0000000   0.0000000
 AtZNuc=   1.0000000   1.0000000   6.0000000   6.0000000   6.0000000   6.0000000   1.0000000   1.0000000   6.0000000   6.0000000

  Atom        31          32          33          34          35          36          37          38          39          40
 IAtWgt=          12          12           1           1           1           1          12          12          12          12
 AtmWgt=  12.0000000  12.0000000   1.0078250   1.0078250   1.0078250   1.0078250  12.0000000  12.0000000  12.0000000  12.0000000
 NucSpn=           0           0           1           1           1           1           0           0           0           0
 AtZEff=   0.0000000   0.0000000   0.0000000   0.0000000   0.0000000   0.0000000   0.0000000   0.0000000   0.0000000   0.0000000
 NQMom=    0.0000000   0.0000000   0.0000000   0.0000000   0.0000000   0.0000000   0.0000000   0.0000000   0.0000000   0.0000000
 NMagM=    0.0000000   0.0000000   2.7928460   2.7928460   2.7928460   2.7928460   0.0000000   0.0000000   0.0000000   0.0000000
 AtZNuc=   6.0000000   6.0000000   1.0000000   1.0000000   1.0000000   1.0000000   6.0000000   6.0000000   6.0000000   6.0000000

  Atom        41          42          43          44          45          46          47          48          49          50
 IAtWgt=          12          12          12          12          12          12           1           1           1           1
 AtmWgt=  12.0000000  12.0000000  12.0000000  12.0000000  12.0000000  12.0000000   1.0078250   1.0078250   1.0078250   1.0078250
 NucSpn=           0           0           0           0           0           0           1           1           1           1
 AtZEff=   0.0000000   0.0000000   0.0000000   0.0000000   0.0000000   0.0000000   0.0000000   0.0000000   0.0000000   0.0000000
 NQMom=    0.0000000   0.0000000   0.0000000   0.0000000   0.0000000   0.0000000   0.0000000   0.0000000   0.0000000   0.0000000
 NMagM=    0.0000000   0.0000000   0.0000000   0.0000000   0.0000000   0.0000000   2.7928460   2.7928460   2.7928460   2.7928460
 AtZNuc=   6.0000000   6.0000000   6.0000000   6.0000000   6.0000000   6.0000000   1.0000000   1.0000000   1.0000000   1.0000000

  Atom        51          52          53          54          55          56          57          58          59          60
 IAtWgt=           1           1          12          12          12          12           1           1          12          12
 AtmWgt=   1.0078250   1.0078250  12.0000000  12.0000000  12.0000000  12.0000000   1.0078250   1.0078250  12.0000000  12.0000000
 NucSpn=           1           1           0           0           0           0           1           1           0           0
 AtZEff=   0.0000000   0.0000000   0.0000000   0.0000000   0.0000000   0.0000000   0.0000000   0.0000000   0.0000000   0.0000000
 NQMom=    0.0000000   0.0000000   0.0000000   0.0000000   0.0000000   0.0000000   0.0000000   0.0000000   0.0000000   0.0000000
 NMagM=    2.7928460   2.7928460   0.0000000   0.0000000   0.0000000   0.0000000   2.7928460   2.7928460   0.0000000   0.0000000
 AtZNuc=   1.0000000   1.0000000   6.0000000   6.0000000   6.0000000   6.0000000   1.0000000   1.0000000   6.0000000   6.0000000

  Atom        61          62          63          64          65          66          67          68          69          70
 IAtWgt=          12          12           1           1          12          12          12          12           1           1
 AtmWgt=  12.0000000  12.0000000   1.0078250   1.0078250  12.0000000  12.0000000  12.0000000  12.0000000   1.0078250   1.0078250
 NucSpn=           0           0           1           1           0           0           0           0           1           1
 AtZEff=   0.0000000   0.0000000   0.0000000   0.0000000   0.0000000   0.0000000   0.0000000   0.0000000   0.0000000   0.0000000
 NQMom=    0.0000000   0.0000000   0.0000000   0.0000000   0.0000000   0.0000000   0.0000000   0.0000000   0.0000000   0.0000000
 NMagM=    0.0000000   0.0000000   2.7928460   2.7928460   0.0000000   0.0000000   0.0000000   0.0000000   2.7928460   2.7928460
 AtZNuc=   6.0000000   6.0000000   1.0000000   1.0000000   6.0000000   6.0000000   6.0000000   6.0000000   1.0000000   1.0000000

  Atom        71          72
 IAtWgt=           1           1
 AtmWgt=   1.0078250   1.0078250
 NucSpn=           1           1
 AtZEff=   0.0000000   0.0000000
 NQMom=    0.0000000   0.0000000
 NMagM=    2.7928460   2.7928460
 AtZNuc=   1.0000000   1.0000000
 Leave Link  101 at Wed Sep 27 16:37:41 2023, MaxMem=  3221225472 cpu:               2.6 elap:               0.1
 (Enter /home/center/opt/aarch64/apps/gaussian16/c01/g16/l202.exe)
 Stoichiometry    C44H28
 Framework group  CS[SG(C4H4),X(C40H24)]
 Deg. of freedom   109
 Full point group                 CS      NOp   2
 Largest Abelian subgroup         CS      NOp   2
 Largest concise Abelian subgroup CS      NOp   2
                         Standard orientation:                         
 ---------------------------------------------------------------------
 Center     Atomic      Atomic             Coordinates (Angstroms)
 Number     Number       Type             X           Y           Z
 ---------------------------------------------------------------------
      1          6           0        0.284890   -2.386485    3.671276
      2          6           0       -1.168774   -2.386485    3.671276
      3          6           0        0.966792   -2.386485    4.933593
      4          6           0       -1.850675   -2.386485    4.933593
      5          6           0        0.274105   -2.386485    6.106357
      6          6           0       -1.157989   -2.386485    6.106357
      7          6           0        0.964449   -2.386485    2.463318
      8          6           0        0.285655   -2.386485    1.224029
      9          6           0       -1.848333   -2.386485    2.463317
     10          6           0       -1.169538   -2.386485    1.224029
     11          1           0        2.051820   -2.386485    4.933260
     12          1           0        2.050167   -2.386485    2.463929
     13          1           0       -2.934049   -2.386485    2.463929
     14          1           0       -2.935703   -2.386485    4.933260
     15          1           0       -1.687237   -2.386485    7.052528
     16          1           0        0.803353   -2.386485    7.052528
     17          6           0        0.964944   -2.386485    0.000000
     18          6           0        0.285655   -2.386485   -1.224029
     19          6           0       -1.848828   -2.386485    0.000000
     20          6           0       -1.169538   -2.386485   -1.224029
     21          1           0        2.050567   -2.386485    0.000000
     22          1           0       -2.934449   -2.386485    0.000000
     23          6           0        0.964449   -2.386485   -2.463318
     24          6           0        0.284890   -2.386485   -3.671276
     25          6           0       -1.848333   -2.386485   -2.463317
     26          6           0       -1.168774   -2.386485   -3.671276
     27          1           0        2.050167   -2.386485   -2.463929
     28          1           0       -2.934049   -2.386485   -2.463929
     29          6           0        0.966792   -2.386485   -4.933593
     30          6           0        0.274105   -2.386485   -6.106357
     31          6           0       -1.850675   -2.386485   -4.933593
     32          6           0       -1.157989   -2.386485   -6.106357
     33          1           0        2.051820   -2.386485   -4.933260
     34          1           0        0.803353   -2.386485   -7.052528
     35          1           0       -1.687237   -2.386485   -7.052528
     36          1           0       -2.935703   -2.386485   -4.933260
     37          6           0        0.441942    3.113317    3.671276
     38          6           0        0.441942    1.659653    3.671276
     39          6           0        0.441942    3.795219    4.933593
     40          6           0        0.441942    0.977752    4.933593
     41          6           0        0.441942    3.102532    6.106357
     42          6           0        0.441942    1.670438    6.106357
     43          6           0        0.441942    3.792876    2.463318
     44          6           0        0.441942    3.114082    1.224029
     45          6           0        0.441942    0.980095    2.463317
     46          6           0        0.441942    1.658889    1.224029
     47          1           0        0.441942    4.880247    4.933260
     48          1           0        0.441942    4.878594    2.463929
     49          1           0        0.441942   -0.105622    2.463929
     50          1           0        0.441942   -0.107276    4.933260
     51          1           0        0.441942    1.141190    7.052528
     52          1           0        0.441942    3.631780    7.052528
     53          6           0        0.441942    3.793371    0.000000
     54          6           0        0.441942    3.114082   -1.224029
     55          6           0        0.441942    0.979600    0.000000
     56          6           0        0.441942    1.658889   -1.224029
     57          1           0        0.441942    4.878994    0.000000
     58          1           0        0.441942   -0.106022    0.000000
     59          6           0        0.441942    3.792876   -2.463318
     60          6           0        0.441942    3.113317   -3.671276
     61          6           0        0.441942    0.980095   -2.463317
     62          6           0        0.441942    1.659653   -3.671276
     63          1           0        0.441942    4.878594   -2.463929
     64          1           0        0.441942   -0.105622   -2.463929
     65          6           0        0.441942    3.795219   -4.933593
     66          6           0        0.441942    3.102532   -6.106357
     67          6           0        0.441942    0.977752   -4.933593
     68          6           0        0.441942    1.670438   -6.106357
     69          1           0        0.441942    4.880247   -4.933260
     70          1           0        0.441942    3.631780   -7.052528
     71          1           0        0.441942    1.141190   -7.052528
     72          1           0        0.441942   -0.107276   -4.933260
 ---------------------------------------------------------------------
 Rotational constants (GHZ):           0.1250813           0.0563744           0.0412852
 Leave Link  202 at Wed Sep 27 16:37:43 2023, MaxMem=  3221225472 cpu:               0.6 elap:               0.0
 (Enter /home/center/opt/aarch64/apps/gaussian16/c01/g16/l122.exe)
 Counterpoise: doing full-system calculation.
 Leave Link  122 at Wed Sep 27 16:37:45 2023, MaxMem=  3221225472 cpu:               0.2 elap:               0.0
 (Enter /home/center/opt/aarch64/apps/gaussian16/c01/g16/l301.exe)
 Standard basis: 6-311G(d,p) (5D, 7F)
 Ernie: Thresh=  0.10000D-02 Tol=  0.10000D-05 Strict=F.
 There are   528 symmetry adapted cartesian basis functions of A'  symmetry.
 There are   476 symmetry adapted cartesian basis functions of A"  symmetry.
 There are   504 symmetry adapted basis functions of A'  symmetry.
 There are   456 symmetry adapted basis functions of A"  symmetry.
   960 basis functions,  1632 primitive gaussians,  1004 cartesian basis functions
   146 alpha electrons      146 beta electrons
       nuclear repulsion energy      4732.4626791405 Hartrees.
 IExCor=  402 DFT=T Ex+Corr=B3LYP ExCW=0 ScaHFX=  0.200000
 ScaDFX=  0.800000  0.720000  1.000000  0.810000 ScalE2=  1.000000  1.000000
 IRadAn=      5 IRanWt=     -1 IRanGd=            0 ICorTp=0 IEmpDi=131
 NAtoms=   72 NActive=   72 NUniq=   40 SFac= 3.24D+00 NAtFMM=   60 NAOKFM=T Big=F
 Integral buffers will be    131072 words long.
 Raffenetti 2 integral format.
 Two-electron integral symmetry is turned on.
 R6Disp:  Grimme-D3 Dispersion energy=       -0.0900695237 Hartrees.
 Nuclear repulsion after empirical dispersion term =     4732.3726096168 Hartrees.
 Leave Link  301 at Wed Sep 27 16:37:48 2023, MaxMem=  3221225472 cpu:               2.1 elap:               0.1
 (Enter /home/center/opt/aarch64/apps/gaussian16/c01/g16/l302.exe)
 NPDir=0 NMtPBC=     1 NCelOv=     1 NCel=       1 NClECP=     1 NCelD=      1
         NCelK=      1 NCelE2=     1 NClLst=     1 CellRange=     0.0.
 One-electron integrals computed using PRISM.
 One-electron integral symmetry used in STVInt
 NBasis=   960 RedAO= T EigKep=  3.68D-05  NBF=   504   456
 NBsUse=   960 1.00D-06 EigRej= -1.00D+00 NBFU=   504   456
 Precomputing XC quadrature grid using
 IXCGrd= 4 IRadAn=           5 IRanWt=          -1 IRanGd=           0 AccXCQ= 0.00D+00.
 Generated NRdTot=       0 NPtTot=           0 NUsed=           0 NTot=          32
 NSgBfM=   991   991   991   991   991 MxSgAt=    72 MxSgA2=    72.
 Leave Link  302 at Wed Sep 27 16:37:52 2023, MaxMem=  3221225472 cpu:              64.7 elap:               2.0
 (Enter /home/center/opt/aarch64/apps/gaussian16/c01/g16/l303.exe)
 DipDrv:  MaxL=1.
 Leave Link  303 at Wed Sep 27 16:37:55 2023, MaxMem=  3221225472 cpu:              13.7 elap:               0.4
 (Enter /home/center/opt/aarch64/apps/gaussian16/c01/g16/l401.exe)
 ExpMin= 1.03D-01 ExpMax= 4.56D+03 ExpMxC= 6.82D+02 IAcc=3 IRadAn=         5 AccDes= 0.00D+00
 Harris functional with IExCor=  402 and IRadAn=       5 diagonalized for initial guess.
 HarFok:  IExCor=  402 AccDes= 0.00D+00 IRadAn=         5 IDoV= 1 UseB2=F ITyADJ=14
 ICtDFT=  3500011 ScaDFX=  1.000000  1.000000  1.000000  1.000000
 FoFCou: FMM=F IPFlag=           0 FMFlag=      100000 FMFlg1=        2000
         NFxFlg=           0 DoJE=T BraDBF=F KetDBF=T FulRan=T
         wScrn=  0.000000 ICntrl=       500 IOpCl=  0 I1Cent=   200000004 NGrid=           0
         NMat0=    1 NMatS0=      1 NMatT0=    0 NMatD0=    1 NMtDS0=    0 NMtDT0=    0
 Petite list used in FoFCou.
 Harris En= -1694.12864279916    
 JPrj=0 DoOrth=F DoCkMO=F.
 Initial guess orbital symmetries:
       Occupied  (A") (A') (A") (A') (A") (A') (A') (A") (A") (A')
                 (A") (A') (A") (A') (A") (A') (A") (A') (A') (A")
                 (A') (A") (A') (A") (A') (A') (A') (A') (A") (A')
                 (A") (A') (A") (A") (A') (A') (A") (A') (A") (A')
                 (A") (A') (A') (A") (A') (A') (A") (A") (A') (A')
                 (A") (A") (A') (A') (A') (A') (A") (A") (A') (A')
                 (A") (A") (A") (A") (A') (A') (A') (A') (A") (A")
                 (A") (A") (A') (A') (A") (A") (A') (A') (A') (A')
                 (A') (A') (A") (A") (A") (A") (A") (A') (A') (A")
                 (A') (A') (A") (A") (A') (A') (A') (A') (A") (A")
                 (A') (A') (A") (A") (A") (A") (A') (A') (A') (A')
                 (A") (A") (A') (A') (A") (A") (A') (A") (A') (A")
                 (A') (A") (A") (A') (A') (A') (A") (A") (A') (A')
                 (A") (A") (A') (A') (A") (A") (A') (A') (A') (A')
                 (A") (A") (A") (A") (A') (A')
       Virtual   (A') (A') (A") (A") (A") (A") (A') (A') (A') (A')
                 (A") (A") (A') (A') (A") (A") (A') (A") (A') (A')
                 (A') (A') (A") (A') (A") (A') (A") (A") (A') (A')
                 (A") (A") (A') (A") (A") (A') (A") (A') (A') (A')
                 (A") (A') (A") (A') (A") (A') (A") (A') (A') (A')
                 (A') (A") (A') (A") (A') (A') (A") (A") (A') (A")
                 (A') (A") (A") (A") (A') (A') (A") (A') (A") (A")
                 (A') (A") (A') (A') (A") (A') (A") (A") (A') (A")
                 (A') (A') (A") (A') (A') (A") (A') (A') (A") (A')
                 (A") (A') (A") (A") (A') (A") (A') (A") (A') (A")
                 (A') (A') (A") (A') (A") (A') (A") (A') (A") (A')
                 (A') (A") (A") (A') (A') (A') (A") (A") (A') (A')
                 (A") (A') (A') (A") (A") (A') (A") (A') (A") (A')
                 (A") (A') (A") (A') (A") (A") (A') (A') (A") (A')
                 (A') (A") (A") (A") (A') (A') (A') (A') (A") (A')
                 (A') (A") (A') (A") (A") (A") (A") (A') (A') (A")
                 (A') (A') (A") (A') (A") (A') (A") (A') (A') (A")
                 (A') (A") (A') (A') (A") (A") (A') (A') (A") (A")
                 (A') (A") (A') (A') (A") (A') (A") (A') (A') (A")
                 (A') (A") (A') (A") (A") (A') (A") (A') (A') (A")
                 (A') (A") (A") (A') (A') (A") (A') (A") (A') (A")
                 (A') (A") (A') (A") (A') (A") (A") (A') (A") (A')
                 (A') (A") (A") (A') (A') (A") (A") (A') (A') (A')
                 (A") (A') (A') (A") (A') (A') (A") (A') (A") (A")
                 (A") (A') (A') (A") (A') (A") (A") (A') (A') (A")
                 (A") (A') (A") (A') (A') (A") (A') (A") (A') (A")
                 (A") (A") (A') (A') (A") (A') (A") (A") (A') (A")
                 (A') (A") (A') (A') (A') (A") (A") (A') (A") (A')
                 (A') (A') (A") (A") (A') (A") (A') (A") (A') (A")
                 (A') (A") (A") (A') (A") (A") (A') (A") (A') (A')
                 (A") (A') (A') (A') (A') (A") (A") (A") (A') (A")
                 (A') (A") (A") (A") (A') (A') (A') (A') (A') (A")
                 (A") (A") (A') (A') (A') (A") (A") (A") (A') (A")
                 (A') (A") (A') (A") (A') (A') (A") (A") (A") (A')
                 (A') (A') (A') (A") (A') (A") (A') (A") (A') (A")
                 (A') (A") (A') (A') (A') (A") (A') (A') (A") (A')
                 (A") (A') (A") (A') (A') (A") (A") (A") (A") (A')
                 (A") (A") (A') (A") (A") (A') (A") (A') (A') (A')
                 (A") (A') (A") (A') (A') (A') (A") (A') (A") (A")
                 (A') (A') (A') (A") (A") (A') (A') (A") (A") (A')
                 (A") (A') (A") (A') (A') (A") (A") (A') (A") (A')
                 (A') (A") (A') (A") (A') (A') (A") (A') (A") (A')
                 (A') (A') (A") (A') (A") (A') (A") (A') (A") (A')
                 (A") (A") (A") (A') (A") (A') (A") (A") (A') (A")
                 (A") (A') (A") (A') (A') (A') (A") (A") (A') (A')
                 (A") (A') (A") (A') (A") (A") (A') (A') (A") (A')
                 (A") (A') (A") (A') (A") (A") (A') (A') (A") (A')
                 (A") (A') (A") (A') (A") (A') (A") (A') (A') (A")
                 (A') (A") (A') (A") (A') (A") (A') (A") (A") (A")
                 (A") (A') (A') (A") (A") (A") (A') (A") (A') (A')
                 (A") (A') (A') (A') (A") (A') (A") (A') (A") (A")
                 (A') (A') (A") (A") (A') (A') (A") (A") (A') (A")
                 (A') (A') (A") (A") (A') (A') (A') (A") (A') (A")
                 (A") (A') (A") (A") (A') (A") (A') (A") (A') (A')
                 (A") (A") (A') (A') (A') (A") (A") (A") (A') (A")
                 (A') (A") (A") (A') (A') (A") (A') (A") (A') (A')
                 (A") (A') (A") (A') (A") (A') (A") (A') (A') (A")
                 (A") (A') (A") (A') (A') (A") (A') (A") (A") (A')
                 (A') (A') (A") (A") (A') (A') (A') (A") (A') (A')
                 (A") (A') (A") (A") (A') (A') (A") (A') (A") (A")
                 (A') (A') (A") (A') (A") (A') (A") (A') (A") (A')
                 (A") (A') (A") (A') (A") (A') (A') (A") (A') (A")
                 (A') (A") (A') (A") (A") (A') (A") (A') (A') (A")
                 (A') (A') (A") (A') (A') (A") (A") (A") (A') (A")
                 (A") (A') (A') (A") (A') (A") (A') (A") (A') (A')
                 (A') (A') (A") (A") (A') (A') (A") (A') (A") (A')
                 (A") (A') (A") (A") (A') (A") (A') (A') (A") (A')
                 (A") (A') (A") (A') (A") (A') (A") (A") (A') (A')
                 (A") (A') (A") (A') (A') (A") (A") (A') (A") (A")
                 (A') (A') (A") (A') (A") (A') (A') (A") (A') (A")
                 (A") (A') (A") (A') (A') (A") (A') (A") (A') (A")
                 (A") (A") (A') (A') (A") (A') (A') (A") (A') (A')
                 (A") (A") (A') (A') (A") (A') (A") (A') (A') (A")
                 (A") (A') (A') (A") (A") (A') (A') (A") (A') (A")
                 (A') (A") (A') (A") (A') (A') (A") (A') (A') (A')
                 (A") (A') (A") (A") (A') (A") (A') (A') (A") (A")
                 (A") (A') (A") (A') (A") (A") (A') (A") (A') (A")
                 (A') (A') (A") (A") (A') (A') (A') (A") (A') (A")
                 (A") (A") (A') (A') (A") (A') (A") (A') (A') (A')
                 (A") (A") (A") (A") (A') (A') (A') (A') (A") (A")
                 (A') (A') (A") (A") (A') (A') (A") (A') (A") (A')
                 (A') (A") (A') (A")
 The electronic state of the initial guess is 1-A'.
 Leave Link  401 at Wed Sep 27 16:38:00 2023, MaxMem=  3221225472 cpu:             106.1 elap:               2.7
 (Enter /home/center/opt/aarch64/apps/gaussian16/c01/g16/l502.exe)
 Integral symmetry usage will be decided dynamically.
 Closed shell SCF:
 Using DIIS extrapolation, IDIIS=  1040.
 NGot=  3221225472 LenX=  3219153746 LenY=  3218144726
 Requested convergence on RMS density matrix=1.00D-08 within 128 cycles.
 Requested convergence on MAX density matrix=1.00D-06.
 Requested convergence on             energy=1.00D-06.
 No special actions if energy rises.
 Fock matrices will be formed incrementally for  20 cycles.
 Integral accuracy reduced to 1.0D-05 until final iterations.

 Cycle   1  Pass 0  IDiag  1:
 FoFJK:  IHMeth= 1 ICntrl=       0 DoSepK=F KAlg= 0 I1Cent=           0 FoldK=F
 IRaf= 570000000 NMat=       1 IRICut=       1 DoRegI=T DoRafI=F ISym2E= 1 IDoP0=0 IntGTp=1.
 FoFCou: FMM=F IPFlag=           0 FMFlag=      100000 FMFlg1=        2000
         NFxFlg=           0 DoJE=F BraDBF=F KetDBF=F FulRan=T
         wScrn=  0.000000 ICntrl=         0 IOpCl=  0 I1Cent=           0 NGrid=           0
         NMat0=    1 NMatS0=      1 NMatT0=    0 NMatD0=    1 NMtDS0=    0 NMtDT0=    0
 Petite list used in FoFCou.
 E= -1693.17602443582    
 DIIS: error= 4.38D-02 at cycle   1 NSaved=   1.
 NSaved= 1 IEnMin= 1 EnMin= -1693.17602443582     IErMin= 1 ErrMin= 4.38D-02
 ErrMax= 4.38D-02  0.00D+00 EMaxC= 1.00D-01 BMatC= 8.93D-01 BMatP= 8.93D-01
 IDIUse=3 WtCom= 5.62D-01 WtEn= 4.38D-01
 Coeff-Com:  0.100D+01
 Coeff-En:   0.100D+01
 Coeff:      0.100D+01
 Gap=     0.055 Goal=   None    Shift=    0.000
 GapD=    0.055 DampG=0.500 DampE=0.500 DampFc=0.2500 IDamp=-1.
 Damping current iteration by 2.50D-01
 RMSDP=1.73D-03 MaxDP=8.43D-02              OVMax= 1.56D-01

 Cycle   2  Pass 0  IDiag  1:
 RMSU=  4.19D-04    CP:  9.82D-01
 E= -1693.48092571358     Delta-E=       -0.304901277758 Rises=F Damp=T
 DIIS: error= 2.56D-02 at cycle   2 NSaved=   2.
 NSaved= 2 IEnMin= 2 EnMin= -1693.48092571358     IErMin= 2 ErrMin= 2.56D-02
 ErrMax= 2.56D-02  0.00D+00 EMaxC= 1.00D-01 BMatC= 2.99D-01 BMatP= 8.93D-01
 IDIUse=3 WtCom= 7.44D-01 WtEn= 2.56D-01
 Coeff-Com: -0.122D+01 0.222D+01
 Coeff-En:   0.000D+00 0.100D+01
 Coeff:     -0.909D+00 0.191D+01
 Gap=     0.055 Goal=   None    Shift=    0.000
 RMSDP=7.04D-04 MaxDP=3.42D-02 DE=-3.05D-01 OVMax= 1.32D-01

 Cycle   3  Pass 0  IDiag  1:
 RMSU=  4.44D-04    CP:  9.57D-01  2.25D+00
 E= -1694.03832608770     Delta-E=       -0.557400374120 Rises=F Damp=F
 DIIS: error= 6.62D-03 at cycle   3 NSaved=   3.
 NSaved= 3 IEnMin= 3 EnMin= -1694.03832608770     IErMin= 3 ErrMin= 6.62D-03
 ErrMax= 6.62D-03  0.00D+00 EMaxC= 1.00D-01 BMatC= 1.32D-02 BMatP= 2.99D-01
 IDIUse=3 WtCom= 9.34D-01 WtEn= 6.62D-02
 Coeff-Com: -0.291D+00 0.581D+00 0.710D+00
 Coeff-En:   0.000D+00 0.000D+00 0.100D+01
 Coeff:     -0.272D+00 0.543D+00 0.729D+00
 Gap=     0.063 Goal=   None    Shift=    0.000
 RMSDP=2.85D-04 MaxDP=1.84D-02 DE=-5.57D-01 OVMax= 1.56D-01

 Cycle   4  Pass 0  IDiag  1:
 RMSU=  2.40D-04    CP:  9.58D-01  2.16D+00  6.65D-01
 E= -1694.02929551401     Delta-E=        0.009030573689 Rises=F Damp=F
 DIIS: error= 1.13D-02 at cycle   4 NSaved=   4.
 NSaved= 4 IEnMin= 3 EnMin= -1694.03832608770     IErMin= 3 ErrMin= 6.62D-03
 ErrMax= 1.13D-02  0.00D+00 EMaxC= 1.00D-01 BMatC= 1.92D-02 BMatP= 1.32D-02
 IDIUse=2 WtCom= 0.00D+00 WtEn= 1.00D+00
 Coeff-En:   0.000D+00 0.000D+00 0.595D+00 0.405D+00
 Coeff:      0.000D+00 0.000D+00 0.595D+00 0.405D+00
 Gap=     0.058 Goal=   None    Shift=    0.000
 RMSDP=1.65D-04 MaxDP=1.24D-02 DE= 9.03D-03 OVMax= 1.18D-01

 Cycle   5  Pass 0  IDiag  1:
 RMSU=  8.36D-05    CP:  9.58D-01  2.15D+00  7.63D-01  4.37D-01
 E= -1694.05171764196     Delta-E=       -0.022422127950 Rises=F Damp=F
 DIIS: error= 2.27D-03 at cycle   5 NSaved=   5.
 NSaved= 5 IEnMin= 5 EnMin= -1694.05171764196     IErMin= 5 ErrMin= 2.27D-03
 ErrMax= 2.27D-03  0.00D+00 EMaxC= 1.00D-01 BMatC= 1.08D-03 BMatP= 1.32D-02
 IDIUse=3 WtCom= 9.77D-01 WtEn= 2.27D-02
 Coeff-Com: -0.165D-01 0.370D-01 0.277D+00 0.215D+00 0.488D+00
 Coeff-En:   0.000D+00 0.000D+00 0.000D+00 0.000D+00 0.100D+01
 Coeff:     -0.161D-01 0.361D-01 0.271D+00 0.210D+00 0.499D+00
 Gap=     0.059 Goal=   None    Shift=    0.000
 RMSDP=5.06D-05 MaxDP=3.73D-03 DE=-2.24D-02 OVMax= 2.98D-02

 Cycle   6  Pass 0  IDiag  1:
 RMSU=  3.20D-05    CP:  9.58D-01  2.17D+00  7.83D-01  4.79D-01  5.73D-01
 E= -1694.05243470523     Delta-E=       -0.000717063273 Rises=F Damp=F
 DIIS: error= 1.38D-03 at cycle   6 NSaved=   6.
 NSaved= 6 IEnMin= 6 EnMin= -1694.05243470523     IErMin= 6 ErrMin= 1.38D-03
 ErrMax= 1.38D-03  0.00D+00 EMaxC= 1.00D-01 BMatC= 3.52D-04 BMatP= 1.08D-03
 IDIUse=3 WtCom= 9.86D-01 WtEn= 1.38D-02
 Coeff-Com: -0.399D-02 0.671D-02 0.121D+00 0.971D-01 0.375D+00 0.404D+00
 Coeff-En:   0.000D+00 0.000D+00 0.000D+00 0.000D+00 0.299D+00 0.701D+00
 Coeff:     -0.394D-02 0.661D-02 0.119D+00 0.958D-01 0.374D+00 0.408D+00
 Gap=     0.058 Goal=   None    Shift=    0.000
 RMSDP=2.53D-05 MaxDP=1.69D-03 DE=-7.17D-04 OVMax= 1.26D-02

 Cycle   7  Pass 0  IDiag  1:
 RMSU=  9.69D-06    CP:  9.58D-01  2.17D+00  7.88D-01  4.61D-01  6.41D-01
                    CP:  3.07D-01
 E= -1694.05284538074     Delta-E=       -0.000410675509 Rises=F Damp=F
 DIIS: error= 3.37D-04 at cycle   7 NSaved=   7.
 NSaved= 7 IEnMin= 7 EnMin= -1694.05284538074     IErMin= 7 ErrMin= 3.37D-04
 ErrMax= 3.37D-04  0.00D+00 EMaxC= 1.00D-01 BMatC= 2.48D-05 BMatP= 3.52D-04
 IDIUse=3 WtCom= 9.97D-01 WtEn= 3.37D-03
 Coeff-Com: -0.525D-03 0.320D-03 0.606D-01 0.483D-01 0.213D+00 0.277D+00
 Coeff-Com:  0.402D+00
 Coeff-En:   0.000D+00 0.000D+00 0.000D+00 0.000D+00 0.000D+00 0.252D-01
 Coeff-En:   0.975D+00
 Coeff:     -0.523D-03 0.319D-03 0.604D-01 0.482D-01 0.212D+00 0.276D+00
 Coeff:      0.404D+00
 Gap=     0.058 Goal=   None    Shift=    0.000
 RMSDP=6.47D-06 MaxDP=3.48D-04 DE=-4.11D-04 OVMax= 2.75D-03

 Initial convergence to 1.0D-05 achieved.  Increase integral accuracy.
 Cycle   8  Pass 1  IDiag  1:
 E= -1694.05260476222     Delta-E=        0.000240618523 Rises=F Damp=F
 DIIS: error= 8.96D-04 at cycle   1 NSaved=   1.
 NSaved= 1 IEnMin= 1 EnMin= -1694.05260476222     IErMin= 1 ErrMin= 8.96D-04
 ErrMax= 8.96D-04  0.00D+00 EMaxC= 1.00D-01 BMatC= 4.72D-05 BMatP= 4.72D-05
 IDIUse=3 WtCom= 9.91D-01 WtEn= 8.96D-03
 Coeff-Com:  0.100D+01
 Coeff-En:   0.100D+01
 Coeff:      0.100D+01
 Gap=     0.058 Goal=   None    Shift=    0.000
 RMSDP=6.47D-06 MaxDP=3.48D-04 DE= 2.41D-04 OVMax= 2.96D-03

 Cycle   9  Pass 1  IDiag  1:
 RMSU=  3.08D-04    CP:  9.98D-01
 E= -1694.05263956142     Delta-E=       -0.000034799199 Rises=F Damp=F
 DIIS: error= 2.46D-04 at cycle   2 NSaved=   2.
 NSaved= 2 IEnMin= 2 EnMin= -1694.05263956142     IErMin= 2 ErrMin= 2.46D-04
 ErrMax= 2.46D-04  0.00D+00 EMaxC= 1.00D-01 BMatC= 7.74D-06 BMatP= 4.72D-05
 IDIUse=3 WtCom= 9.98D-01 WtEn= 2.46D-03
 Coeff-Com:  0.172D+00 0.828D+00
 Coeff-En:   0.000D+00 0.100D+01
 Coeff:      0.172D+00 0.828D+00
 Gap=     0.058 Goal=   None    Shift=    0.000
 RMSDP=1.04D-05 MaxDP=8.04D-04 DE=-3.48D-05 OVMax= 7.09D-03

 Cycle  10  Pass 1  IDiag  1:
 RMSU=  1.02D-05    CP:  9.98D-01  1.01D+00
 E= -1694.05260517227     Delta-E=        0.000034389142 Rises=F Damp=F
 DIIS: error= 5.57D-04 at cycle   3 NSaved=   3.
 NSaved= 3 IEnMin= 2 EnMin= -1694.05263956142     IErMin= 2 ErrMin= 2.46D-04
 ErrMax= 5.57D-04  0.00D+00 EMaxC= 1.00D-01 BMatC= 3.50D-05 BMatP= 7.74D-06
 IDIUse=3 WtCom= 2.98D-01 WtEn= 7.02D-01
 Coeff-Com:  0.407D-03 0.682D+00 0.318D+00
 Coeff-En:   0.000D+00 0.750D+00 0.250D+00
 Coeff:      0.121D-03 0.730D+00 0.270D+00
 Gap=     0.058 Goal=   None    Shift=    0.000
 RMSDP=5.93D-06 MaxDP=4.44D-04 DE= 3.44D-05 OVMax= 4.15D-03

 Cycle  11  Pass 1  IDiag  1:
 RMSU=  1.16D-06    CP:  9.98D-01  1.01D+00  4.30D-01
 E= -1694.05264744061     Delta-E=       -0.000042268333 Rises=F Damp=F
 DIIS: error= 8.33D-05 at cycle   4 NSaved=   4.
 NSaved= 4 IEnMin= 4 EnMin= -1694.05264744061     IErMin= 4 ErrMin= 8.33D-05
 ErrMax= 8.33D-05  0.00D+00 EMaxC= 1.00D-01 BMatC= 1.33D-06 BMatP= 7.74D-06
 IDIUse=1 WtCom= 1.00D+00 WtEn= 0.00D+00
 Coeff-Com: -0.352D-02 0.447D+00 0.135D+00 0.421D+00
 Coeff:     -0.352D-02 0.447D+00 0.135D+00 0.421D+00
 Gap=     0.058 Goal=   None    Shift=    0.000
 RMSDP=1.24D-06 MaxDP=1.04D-04 DE=-4.23D-05 OVMax= 7.84D-04

 Cycle  12  Pass 1  IDiag  1:
 RMSU=  4.46D-07    CP:  9.98D-01  1.01D+00  3.21D-01  7.20D-01
 E= -1694.05264895469     Delta-E=       -0.000001514082 Rises=F Damp=F
 DIIS: error= 8.43D-06 at cycle   5 NSaved=   5.
 NSaved= 5 IEnMin= 5 EnMin= -1694.05264895469     IErMin= 5 ErrMin= 8.43D-06
 ErrMax= 8.43D-06  0.00D+00 EMaxC= 1.00D-01 BMatC= 1.07D-08 BMatP= 1.33D-06
 IDIUse=1 WtCom= 1.00D+00 WtEn= 0.00D+00
 Coeff-Com: -0.236D-02 0.282D+00 0.834D-01 0.278D+00 0.358D+00
 Coeff:     -0.236D-02 0.282D+00 0.834D-01 0.278D+00 0.358D+00
 Gap=     0.058 Goal=   None    Shift=    0.000
 RMSDP=1.36D-07 MaxDP=1.08D-05 DE=-1.51D-06 OVMax= 9.54D-05

 Cycle  13  Pass 1  IDiag  1:
 RMSU=  1.20D-07    CP:  9.98D-01  1.01D+00  3.21D-01  7.44D-01  8.74D-01
 E= -1694.05264896612     Delta-E=       -0.000000011435 Rises=F Damp=F
 DIIS: error= 2.92D-06 at cycle   6 NSaved=   6.
 NSaved= 6 IEnMin= 6 EnMin= -1694.05264896612     IErMin= 6 ErrMin= 2.92D-06
 ErrMax= 2.92D-06  0.00D+00 EMaxC= 1.00D-01 BMatC= 9.53D-10 BMatP= 1.07D-08
 IDIUse=1 WtCom= 1.00D+00 WtEn= 0.00D+00
 Coeff-Com: -0.959D-03 0.111D+00 0.323D-01 0.113D+00 0.240D+00 0.505D+00
 Coeff:     -0.959D-03 0.111D+00 0.323D-01 0.113D+00 0.240D+00 0.505D+00
 Gap=     0.058 Goal=   None    Shift=    0.000
 RMSDP=5.18D-08 MaxDP=3.94D-06 DE=-1.14D-08 OVMax= 3.33D-05

 Cycle  14  Pass 1  IDiag  1:
 RMSU=  3.63D-08    CP:  9.98D-01  1.01D+00  3.21D-01  7.36D-01  9.14D-01
                    CP:  7.41D-01
 E= -1694.05264896718     Delta-E=       -0.000000001057 Rises=F Damp=F
 DIIS: error= 8.08D-07 at cycle   7 NSaved=   7.
 NSaved= 7 IEnMin= 7 EnMin= -1694.05264896718     IErMin= 7 ErrMin= 8.08D-07
 ErrMax= 8.08D-07  0.00D+00 EMaxC= 1.00D-01 BMatC= 1.48D-10 BMatP= 9.53D-10
 IDIUse=1 WtCom= 1.00D+00 WtEn= 0.00D+00
 Coeff-Com: -0.407D-03 0.461D-01 0.132D-01 0.481D-01 0.117D+00 0.345D+00
 Coeff-Com:  0.432D+00
 Coeff:     -0.407D-03 0.461D-01 0.132D-01 0.481D-01 0.117D+00 0.345D+00
 Coeff:      0.432D+00
 Gap=     0.058 Goal=   None    Shift=    0.000
 RMSDP=1.46D-08 MaxDP=6.47D-07 DE=-1.06D-09 OVMax= 5.74D-06

 Cycle  15  Pass 1  IDiag  1:
 RMSU=  9.04D-09    CP:  9.98D-01  1.01D+00  3.21D-01  7.38D-01  9.14D-01
                    CP:  7.79D-01  7.20D-01
 E= -1694.05264896734     Delta-E=       -0.000000000159 Rises=F Damp=F
 DIIS: error= 1.66D-07 at cycle   8 NSaved=   8.
 NSaved= 8 IEnMin= 8 EnMin= -1694.05264896734     IErMin= 8 ErrMin= 1.66D-07
 ErrMax= 1.66D-07  0.00D+00 EMaxC= 1.00D-01 BMatC= 1.14D-11 BMatP= 1.48D-10
 IDIUse=1 WtCom= 1.00D+00 WtEn= 0.00D+00
 Coeff-Com:  0.272D-04-0.369D-02-0.144D-02-0.219D-02-0.115D-02 0.862D-01
 Coeff-Com:  0.211D+00 0.712D+00
 Coeff:      0.272D-04-0.369D-02-0.144D-02-0.219D-02-0.115D-02 0.862D-01
 Coeff:      0.211D+00 0.712D+00
 Gap=     0.058 Goal=   None    Shift=    0.000
 RMSDP=5.41D-09 MaxDP=2.00D-07 DE=-1.59D-10 OVMax= 1.54D-06

 SCF Done:  E(RB3LYP) =  -1694.05264897     A.U. after   15 cycles
            NFock= 15  Conv=0.54D-08     -V/T= 2.0043
 KE= 1.686804792539D+03 PE=-1.339543576257D+04 EE= 5.282205711450D+03
 Leave Link  502 at Wed Sep 27 16:39:53 2023, MaxMem=  3221225472 cpu:            4045.6 elap:             111.2
 (Enter /home/center/opt/aarch64/apps/gaussian16/c01/g16/l601.exe)
 Copying SCF densities to generalized density rwf, IOpCl= 0 IROHF=0.

 **********************************************************************

            Population analysis using the SCF Density.

 **********************************************************************

 Orbital symmetries:
       Occupied  (A") (A') (A') (A") (A") (A') (A") (A') (A') (A')
                 (A") (A') (A") (A') (A") (A') (A") (A') (A") (A')
                 (A") (A') (A") (A') (A") (A') (A') (A") (A') (A")
                 (A") (A') (A") (A') (A') (A") (A') (A") (A') (A')
                 (A") (A') (A") (A') (A') (A") (A') (A") (A') (A')
                 (A") (A") (A') (A') (A") (A') (A') (A") (A') (A")
                 (A') (A") (A") (A") (A') (A') (A') (A') (A") (A")
                 (A') (A") (A") (A") (A') (A') (A") (A') (A') (A')
                 (A') (A") (A") (A') (A") (A") (A') (A") (A') (A')
                 (A") (A') (A") (A") (A') (A') (A") (A') (A") (A')
                 (A") (A') (A') (A') (A') (A") (A') (A") (A") (A')
                 (A') (A") (A') (A") (A") (A") (A") (A') (A") (A')
                 (A') (A') (A') (A") (A") (A') (A') (A") (A') (A")
                 (A") (A") (A') (A') (A") (A') (A") (A') (A') (A")
                 (A') (A") (A") (A") (A') (A')
       Virtual   (A') (A') (A") (A") (A") (A") (A') (A') (A') (A")
                 (A') (A') (A") (A') (A") (A') (A') (A') (A") (A")
                 (A') (A') (A") (A") (A') (A") (A') (A") (A") (A')
                 (A") (A') (A") (A') (A') (A") (A') (A") (A') (A")
                 (A') (A') (A') (A") (A") (A') (A') (A") (A") (A")
                 (A') (A') (A') (A') (A') (A") (A') (A') (A") (A')
                 (A") (A") (A") (A") (A') (A') (A") (A') (A") (A")
                 (A') (A') (A") (A') (A') (A") (A") (A') (A") (A')
                 (A") (A') (A') (A") (A') (A') (A") (A') (A') (A")
                 (A") (A') (A") (A') (A') (A") (A') (A") (A') (A")
                 (A') (A") (A') (A') (A") (A") (A") (A') (A") (A")
                 (A') (A') (A") (A') (A') (A") (A') (A') (A") (A')
                 (A") (A') (A") (A') (A') (A') (A") (A') (A") (A")
                 (A') (A') (A") (A') (A') (A") (A') (A") (A") (A')
                 (A') (A') (A') (A") (A") (A") (A") (A') (A") (A')
                 (A") (A') (A") (A") (A') (A") (A') (A') (A') (A')
                 (A") (A") (A') (A") (A') (A') (A") (A") (A') (A")
                 (A') (A') (A') (A") (A') (A") (A") (A") (A') (A")
                 (A') (A") (A') (A") (A') (A") (A") (A') (A") (A')
                 (A') (A") (A') (A') (A') (A") (A") (A") (A') (A")
                 (A') (A') (A") (A') (A") (A') (A') (A") (A') (A")
                 (A') (A') (A") (A") (A') (A") (A') (A') (A") (A")
                 (A') (A") (A') (A") (A') (A") (A') (A') (A") (A")
                 (A') (A') (A') (A") (A') (A") (A') (A") (A') (A")
                 (A") (A') (A') (A") (A') (A") (A") (A') (A') (A")
                 (A') (A") (A') (A") (A") (A') (A") (A') (A") (A')
                 (A") (A') (A') (A") (A') (A") (A") (A') (A') (A")
                 (A") (A') (A") (A') (A') (A") (A') (A") (A') (A")
                 (A') (A") (A") (A') (A') (A") (A') (A") (A') (A")
                 (A') (A") (A') (A") (A') (A") (A') (A") (A') (A")
                 (A') (A") (A") (A') (A') (A') (A") (A") (A') (A")
                 (A') (A') (A") (A") (A') (A") (A') (A') (A") (A")
                 (A') (A') (A") (A') (A") (A') (A") (A") (A') (A")
                 (A') (A") (A') (A") (A') (A') (A") (A") (A') (A")
                 (A') (A') (A') (A') (A") (A") (A') (A") (A') (A")
                 (A') (A") (A') (A') (A') (A') (A") (A") (A') (A')
                 (A') (A") (A') (A") (A") (A") (A') (A") (A') (A")
                 (A') (A") (A") (A") (A") (A') (A') (A") (A') (A")
                 (A') (A') (A") (A') (A') (A") (A') (A') (A") (A')
                 (A') (A") (A') (A") (A') (A") (A") (A') (A') (A")
                 (A') (A") (A") (A') (A") (A') (A') (A") (A') (A")
                 (A') (A') (A") (A") (A') (A') (A") (A') (A') (A")
                 (A') (A") (A') (A") (A') (A") (A') (A') (A") (A")
                 (A') (A') (A") (A") (A") (A") (A') (A") (A') (A')
                 (A") (A") (A") (A') (A') (A') (A") (A") (A') (A')
                 (A") (A') (A") (A') (A") (A") (A') (A") (A') (A')
                 (A") (A') (A") (A") (A') (A') (A') (A") (A") (A')
                 (A") (A') (A") (A') (A") (A') (A') (A") (A') (A")
                 (A') (A") (A') (A") (A') (A") (A') (A") (A") (A")
                 (A") (A") (A') (A') (A") (A") (A') (A") (A') (A')
                 (A") (A") (A') (A') (A') (A') (A") (A") (A') (A')
                 (A") (A") (A') (A') (A") (A') (A") (A') (A") (A")
                 (A') (A') (A") (A') (A") (A') (A") (A') (A") (A")
                 (A') (A") (A') (A") (A') (A") (A") (A') (A') (A')
                 (A') (A") (A") (A') (A") (A') (A") (A") (A") (A')
                 (A') (A") (A") (A') (A') (A") (A') (A") (A') (A')
                 (A") (A') (A') (A") (A") (A') (A") (A') (A') (A")
                 (A') (A") (A') (A") (A') (A') (A") (A') (A') (A")
                 (A") (A') (A") (A') (A") (A") (A') (A") (A') (A')
                 (A") (A") (A') (A") (A") (A') (A') (A') (A') (A')
                 (A") (A") (A') (A") (A') (A") (A') (A') (A') (A")
                 (A") (A') (A') (A") (A') (A') (A") (A") (A') (A')
                 (A') (A") (A") (A") (A') (A') (A") (A") (A') (A")
                 (A") (A') (A') (A") (A') (A') (A') (A") (A") (A")
                 (A') (A") (A') (A") (A') (A') (A") (A') (A') (A')
                 (A") (A") (A') (A") (A') (A") (A') (A") (A') (A')
                 (A") (A') (A") (A') (A") (A") (A') (A') (A") (A')
                 (A") (A') (A") (A') (A") (A') (A") (A") (A') (A')
                 (A') (A') (A") (A") (A') (A") (A") (A') (A") (A")
                 (A') (A') (A") (A') (A') (A') (A") (A") (A") (A')
                 (A') (A") (A") (A') (A') (A") (A') (A") (A') (A")
                 (A") (A") (A') (A') (A") (A') (A') (A") (A') (A")
                 (A') (A") (A') (A') (A") (A') (A") (A') (A") (A')
                 (A') (A") (A') (A") (A") (A') (A') (A") (A") (A')
                 (A') (A") (A') (A") (A') (A') (A") (A') (A') (A')
                 (A") (A") (A') (A") (A') (A") (A') (A') (A") (A")
                 (A") (A') (A") (A") (A') (A') (A") (A") (A') (A")
                 (A') (A') (A") (A") (A') (A') (A') (A') (A") (A")
                 (A") (A") (A') (A') (A") (A') (A') (A") (A') (A')
                 (A") (A") (A") (A") (A') (A') (A") (A') (A') (A')
                 (A") (A") (A') (A') (A") (A') (A") (A') (A") (A')
                 (A') (A") (A') (A")
 The electronic state is 1-A'.
 Alpha  occ. eigenvalues --  -10.19906 -10.19906 -10.19870 -10.19869 -10.19786
 Alpha  occ. eigenvalues --  -10.19786 -10.19739 -10.19739 -10.18974 -10.18907
 Alpha  occ. eigenvalues --  -10.18896 -10.18895 -10.18853 -10.18853 -10.18728
 Alpha  occ. eigenvalues --  -10.18728 -10.18692 -10.18692 -10.18656 -10.18656
 Alpha  occ. eigenvalues --  -10.18583 -10.18583 -10.17697 -10.17697 -10.17664
 Alpha  occ. eigenvalues --  -10.17664 -10.17570 -10.17570 -10.17490 -10.17490
 Alpha  occ. eigenvalues --  -10.16852 -10.16852 -10.16764 -10.16764 -10.16704
 Alpha  occ. eigenvalues --  -10.16704 -10.16697 -10.16628 -10.16628 -10.16416
 Alpha  occ. eigenvalues --  -10.16375 -10.16375 -10.16298 -10.16298  -0.90398
 Alpha  occ. eigenvalues --   -0.88880  -0.88092  -0.86650  -0.86543  -0.84352
 Alpha  occ. eigenvalues --   -0.83393  -0.81229  -0.80820  -0.79485  -0.79275
 Alpha  occ. eigenvalues --   -0.78549  -0.77341  -0.77074  -0.76935  -0.75204
 Alpha  occ. eigenvalues --   -0.74766  -0.73838  -0.73067  -0.71685  -0.70149
 Alpha  occ. eigenvalues --   -0.68321  -0.67944  -0.66147  -0.63652  -0.63276
 Alpha  occ. eigenvalues --   -0.62009  -0.61523  -0.61198  -0.60839  -0.60176
 Alpha  occ. eigenvalues --   -0.59899  -0.58766  -0.58583  -0.58109  -0.56506
 Alpha  occ. eigenvalues --   -0.53611  -0.53446  -0.53169  -0.51557  -0.51401
 Alpha  occ. eigenvalues --   -0.51127  -0.50499  -0.49402  -0.48488  -0.47998
 Alpha  occ. eigenvalues --   -0.47378  -0.46964  -0.46398  -0.46377  -0.46086
 Alpha  occ. eigenvalues --   -0.45782  -0.44989  -0.44811  -0.44287  -0.44018
 Alpha  occ. eigenvalues --   -0.43398  -0.42785  -0.42673  -0.42428  -0.42355
 Alpha  occ. eigenvalues --   -0.41640  -0.41601  -0.41587  -0.41271  -0.40663
 Alpha  occ. eigenvalues --   -0.40427  -0.40208  -0.40192  -0.39453  -0.39179
 Alpha  occ. eigenvalues --   -0.39034  -0.38420  -0.37597  -0.37217  -0.37184
 Alpha  occ. eigenvalues --   -0.36383  -0.35595  -0.35209  -0.35006  -0.34633
 Alpha  occ. eigenvalues --   -0.34014  -0.33919  -0.33428  -0.33253  -0.32878
 Alpha  occ. eigenvalues --   -0.32745  -0.31804  -0.30783  -0.30312  -0.30106
 Alpha  occ. eigenvalues --   -0.29269  -0.28427  -0.27458  -0.27292  -0.25467
 Alpha  occ. eigenvalues --   -0.25403  -0.23531  -0.23224  -0.21365  -0.18890
 Alpha  occ. eigenvalues --   -0.16611
 Alpha virt. eigenvalues --   -0.10768  -0.08560  -0.05492  -0.03845  -0.03296
 Alpha virt. eigenvalues --   -0.01605  -0.01238   0.01028   0.01044   0.01109
 Alpha virt. eigenvalues --    0.01684   0.03193   0.03562   0.03880   0.03965
 Alpha virt. eigenvalues --    0.03983   0.04979   0.05717   0.05768   0.06108
 Alpha virt. eigenvalues --    0.06160   0.06988   0.07190   0.07360   0.07754
 Alpha virt. eigenvalues --    0.08465   0.08731   0.09424   0.09542   0.10069
 Alpha virt. eigenvalues --    0.10581   0.11001   0.11685   0.12188   0.13089
 Alpha virt. eigenvalues --    0.13256   0.13295   0.13460   0.14113   0.14415
 Alpha virt. eigenvalues --    0.15209   0.15926   0.16517   0.17005   0.17626
 Alpha virt. eigenvalues --    0.17672   0.17979   0.18077   0.19261   0.20170
 Alpha virt. eigenvalues --    0.20644   0.20861   0.22042   0.22065   0.23553
 Alpha virt. eigenvalues --    0.24042   0.24204   0.24694   0.24775   0.25525
 Alpha virt. eigenvalues --    0.25570   0.26384   0.26634   0.26807   0.27040
 Alpha virt. eigenvalues --    0.27421   0.27541   0.28566   0.28574   0.28798
 Alpha virt. eigenvalues --    0.29104   0.29502   0.29649   0.29969   0.30097
 Alpha virt. eigenvalues --    0.30212   0.30432   0.31246   0.31902   0.32118
 Alpha virt. eigenvalues --    0.32554   0.33513   0.33845   0.34212   0.34249
 Alpha virt. eigenvalues --    0.34721   0.35130   0.35315   0.35528   0.35918
 Alpha virt. eigenvalues --    0.35992   0.36395   0.37132   0.37375   0.37722
 Alpha virt. eigenvalues --    0.37732   0.38002   0.38437   0.38956   0.39003
 Alpha virt. eigenvalues --    0.39188   0.39410   0.39649   0.39831   0.39955
 Alpha virt. eigenvalues --    0.40206   0.40489   0.40495   0.41005   0.41434
 Alpha virt. eigenvalues --    0.41604   0.42151   0.42254   0.42327   0.42635
 Alpha virt. eigenvalues --    0.42723   0.43122   0.43297   0.43397   0.43630
 Alpha virt. eigenvalues --    0.43737   0.44455   0.44518   0.45094   0.45181
 Alpha virt. eigenvalues --    0.45265   0.45470   0.45509   0.45777   0.45790
 Alpha virt. eigenvalues --    0.46004   0.46284   0.46400   0.46445   0.46755
 Alpha virt. eigenvalues --    0.47023   0.47088   0.47655   0.48099   0.48935
 Alpha virt. eigenvalues --    0.49007   0.49533   0.49583   0.49786   0.49994
 Alpha virt. eigenvalues --    0.50468   0.50498   0.50660   0.51010   0.51483
 Alpha virt. eigenvalues --    0.51847   0.52050   0.52430   0.52843   0.53160
 Alpha virt. eigenvalues --    0.53878   0.54501   0.54804   0.55504   0.55799
 Alpha virt. eigenvalues --    0.56124   0.56688   0.57357   0.57780   0.57902
 Alpha virt. eigenvalues --    0.58421   0.58567   0.58943   0.58985   0.59342
 Alpha virt. eigenvalues --    0.59640   0.59775   0.60337   0.60740   0.61046
 Alpha virt. eigenvalues --    0.61237   0.61582   0.62096   0.62263   0.62471
 Alpha virt. eigenvalues --    0.62605   0.62825   0.63184   0.63431   0.63615
 Alpha virt. eigenvalues --    0.63672   0.64135   0.64397   0.64409   0.64502
 Alpha virt. eigenvalues --    0.64970   0.65158   0.65402   0.65994   0.66957
 Alpha virt. eigenvalues --    0.67347   0.67860   0.68752   0.68875   0.69552
 Alpha virt. eigenvalues --    0.69831   0.70046   0.70736   0.71043   0.71345
 Alpha virt. eigenvalues --    0.71720   0.71991   0.72534   0.72747   0.73227
 Alpha virt. eigenvalues --    0.73349   0.73479   0.74679   0.74870   0.74875
 Alpha virt. eigenvalues --    0.75662   0.76113   0.76824   0.76870   0.77804
 Alpha virt. eigenvalues --    0.78056   0.78482   0.78547   0.78662   0.79009
 Alpha virt. eigenvalues --    0.79435   0.79800   0.80080   0.80144   0.80437
 Alpha virt. eigenvalues --    0.80620   0.81611   0.81955   0.82706   0.83179
 Alpha virt. eigenvalues --    0.83453   0.83891   0.84174   0.84526   0.85154
 Alpha virt. eigenvalues --    0.85379   0.86094   0.86660   0.86881   0.87114
 Alpha virt. eigenvalues --    0.87503   0.87956   0.88859   0.89853   0.90098
 Alpha virt. eigenvalues --    0.90396   0.91100   0.91534   0.91610   0.92732
 Alpha virt. eigenvalues --    0.93296   0.93885   0.94267   0.94714   0.95446
 Alpha virt. eigenvalues --    0.95645   0.95933   0.96433   0.96983   0.97145
 Alpha virt. eigenvalues --    0.97528   0.98592   0.98640   0.99371   0.99484
 Alpha virt. eigenvalues --    0.99985   1.00080   1.01260   1.01693   1.02264
 Alpha virt. eigenvalues --    1.02387   1.02627   1.02937   1.03498   1.03535
 Alpha virt. eigenvalues --    1.04145   1.04212   1.04433   1.04557   1.05538
 Alpha virt. eigenvalues --    1.05778   1.05906   1.05937   1.06245   1.06802
 Alpha virt. eigenvalues --    1.06881   1.07231   1.07956   1.08084   1.08641
 Alpha virt. eigenvalues --    1.08656   1.08953   1.09253   1.09552   1.09797
 Alpha virt. eigenvalues --    1.10340   1.11081   1.11487   1.11518   1.12147
 Alpha virt. eigenvalues --    1.12638   1.12827   1.13434   1.13593   1.13946
 Alpha virt. eigenvalues --    1.14164   1.14468   1.14501   1.15626   1.15778
 Alpha virt. eigenvalues --    1.16222   1.16613   1.16915   1.18180   1.18656
 Alpha virt. eigenvalues --    1.18986   1.19901   1.20266   1.21454   1.23040
 Alpha virt. eigenvalues --    1.23506   1.24637   1.25171   1.25222   1.26304
 Alpha virt. eigenvalues --    1.27016   1.27760   1.28130   1.28369   1.30688
 Alpha virt. eigenvalues --    1.32059   1.32392   1.32818   1.32926   1.34868
 Alpha virt. eigenvalues --    1.35037   1.35629   1.36100   1.37435   1.37741
 Alpha virt. eigenvalues --    1.39413   1.39667   1.40315   1.40347   1.41775
 Alpha virt. eigenvalues --    1.41843   1.42579   1.42588   1.43481   1.44064
 Alpha virt. eigenvalues --    1.44497   1.44777   1.44878   1.44972   1.45659
 Alpha virt. eigenvalues --    1.46268   1.47170   1.47392   1.47588   1.48082
 Alpha virt. eigenvalues --    1.48159   1.48312   1.48996   1.49571   1.49609
 Alpha virt. eigenvalues --    1.49962   1.50082   1.50264   1.50768   1.51031
 Alpha virt. eigenvalues --    1.51243   1.51959   1.52466   1.52841   1.53411
 Alpha virt. eigenvalues --    1.53444   1.54077   1.54237   1.54812   1.55471
 Alpha virt. eigenvalues --    1.55589   1.56002   1.56209   1.56317   1.57031
 Alpha virt. eigenvalues --    1.57125   1.57876   1.58541   1.58613   1.59877
 Alpha virt. eigenvalues --    1.60025   1.61056   1.61802   1.62033   1.62253
 Alpha virt. eigenvalues --    1.62407   1.62944   1.63027   1.63350   1.65402
 Alpha virt. eigenvalues --    1.65442   1.65951   1.66340   1.67915   1.68313
 Alpha virt. eigenvalues --    1.69200   1.69765   1.70157   1.71128   1.71178
 Alpha virt. eigenvalues --    1.71386   1.71714   1.72271   1.72534   1.72600
 Alpha virt. eigenvalues --    1.73432   1.73759   1.74245   1.74471   1.74963
 Alpha virt. eigenvalues --    1.75176   1.75602   1.76082   1.76796   1.77883
 Alpha virt. eigenvalues --    1.78467   1.78901   1.79747   1.79808   1.80153
 Alpha virt. eigenvalues --    1.80592   1.81106   1.81696   1.81904   1.82212
 Alpha virt. eigenvalues --    1.82604   1.82916   1.83524   1.83687   1.84699
 Alpha virt. eigenvalues --    1.84876   1.85310   1.85519   1.85751   1.85815
 Alpha virt. eigenvalues --    1.86529   1.86637   1.86875   1.88117   1.88569
 Alpha virt. eigenvalues --    1.88606   1.88896   1.88964   1.89264   1.89484
 Alpha virt. eigenvalues --    1.89728   1.90300   1.90505   1.91136   1.91184
 Alpha virt. eigenvalues --    1.91642   1.92305   1.92652   1.93125   1.93192
 Alpha virt. eigenvalues --    1.93538   1.93848   1.94136   1.94700   1.94870
 Alpha virt. eigenvalues --    1.95628   1.95791   1.95886   1.96764   1.97145
 Alpha virt. eigenvalues --    1.97362   1.97728   1.97758   1.98053   1.99704
 Alpha virt. eigenvalues --    1.99914   2.00266   2.00928   2.01087   2.02042
 Alpha virt. eigenvalues --    2.02320   2.02564   2.02755   2.03501   2.05161
 Alpha virt. eigenvalues --    2.06132   2.07883   2.08163   2.08723   2.09554
 Alpha virt. eigenvalues --    2.09714   2.11291   2.11359   2.11401   2.12440
 Alpha virt. eigenvalues --    2.12740   2.13557   2.13762   2.13901   2.14845
 Alpha virt. eigenvalues --    2.15959   2.16406   2.17248   2.17943   2.18412
 Alpha virt. eigenvalues --    2.19723   2.20131   2.21075   2.21996   2.23258
 Alpha virt. eigenvalues --    2.23304   2.23831   2.24040   2.24139   2.24544
 Alpha virt. eigenvalues --    2.25179   2.26422   2.26504   2.27031   2.27294
 Alpha virt. eigenvalues --    2.27525   2.28714   2.28754   2.28930   2.29823
 Alpha virt. eigenvalues --    2.30077   2.31223   2.32323   2.33036   2.34343
 Alpha virt. eigenvalues --    2.35005   2.35685   2.36819   2.37580   2.38484
 Alpha virt. eigenvalues --    2.39332   2.40462   2.40674   2.42413   2.42437
 Alpha virt. eigenvalues --    2.42818   2.43834   2.44805   2.45016   2.45878
 Alpha virt. eigenvalues --    2.46092   2.46383   2.47237   2.47759   2.50249
 Alpha virt. eigenvalues --    2.51226   2.53069   2.53772   2.53929   2.54494
 Alpha virt. eigenvalues --    2.55441   2.55494   2.56792   2.57307   2.57953
 Alpha virt. eigenvalues --    2.58136   2.58953   2.59068   2.59417   2.60014
 Alpha virt. eigenvalues --    2.60411   2.61024   2.61143   2.61466   2.61571
 Alpha virt. eigenvalues --    2.61871   2.62679   2.62783   2.63570   2.63750
 Alpha virt. eigenvalues --    2.64005   2.64618   2.64718   2.65182   2.65758
 Alpha virt. eigenvalues --    2.65840   2.66918   2.66994   2.67123   2.67636
 Alpha virt. eigenvalues --    2.67823   2.68099   2.68125   2.68845   2.69182
 Alpha virt. eigenvalues --    2.69230   2.69359   2.69457   2.70291   2.70338
 Alpha virt. eigenvalues --    2.71020   2.71116   2.71441   2.72118   2.72155
 Alpha virt. eigenvalues --    2.73130   2.73580   2.73806   2.74147   2.74171
 Alpha virt. eigenvalues --    2.74930   2.74980   2.75530   2.75743   2.77058
 Alpha virt. eigenvalues --    2.77322   2.77425   2.78064   2.78364   2.78748
 Alpha virt. eigenvalues --    2.79972   2.80004   2.80483   2.80660   2.80733
 Alpha virt. eigenvalues --    2.81700   2.81895   2.82749   2.83585   2.84023
 Alpha virt. eigenvalues --    2.84646   2.85274   2.85388   2.86084   2.86933
 Alpha virt. eigenvalues --    2.87341   2.87913   2.88862   2.89343   2.90347
 Alpha virt. eigenvalues --    2.90607   2.91413   2.91859   2.92962   2.93495
 Alpha virt. eigenvalues --    2.93699   2.94586   2.94708   2.95289   2.95723
 Alpha virt. eigenvalues --    2.97489   2.97704   2.98468   2.98673   2.99036
 Alpha virt. eigenvalues --    2.99172   3.00546   3.01611   3.03967   3.03970
 Alpha virt. eigenvalues --    3.06702   3.07498   3.09251   3.10476   3.10620
 Alpha virt. eigenvalues --    3.12499   3.12956   3.15496   3.15985   3.16905
 Alpha virt. eigenvalues --    3.17750   3.18254   3.18648   3.19635   3.21093
 Alpha virt. eigenvalues --    3.22102   3.23858   3.24121   3.26002   3.30572
 Alpha virt. eigenvalues --    3.30863   3.31249   3.31332   3.32424   3.34140
 Alpha virt. eigenvalues --    3.35506   3.35858   3.37122   3.37433   3.37738
 Alpha virt. eigenvalues --    3.38383   3.38647   3.39644   3.40226   3.40983
 Alpha virt. eigenvalues --    3.42349   3.42541   3.43651   3.44263   3.45661
 Alpha virt. eigenvalues --    3.46099   3.46561   3.47602   3.50203   3.50341
 Alpha virt. eigenvalues --    3.51021   3.51892   3.52642   3.53260   3.53727
 Alpha virt. eigenvalues --    3.57043   3.57743   3.59179   3.59812   3.62214
 Alpha virt. eigenvalues --    3.62594   3.63199   3.64378   3.64638   3.66225
 Alpha virt. eigenvalues --    3.66420   3.67526   3.67860   3.69760   3.70361
 Alpha virt. eigenvalues --    3.70955   3.71521   3.72823   3.74591   4.00057
 Alpha virt. eigenvalues --    4.00076   4.01244   4.01565   4.03073   4.03167
 Alpha virt. eigenvalues --    4.03469   4.03737   4.15881   4.16331   4.17231
 Alpha virt. eigenvalues --    4.20073   4.20748   4.21053   4.21451   4.21886
 Alpha virt. eigenvalues --    4.22182   4.24402   4.24814   4.26508   4.30011
 Alpha virt. eigenvalues --    4.31546   4.38345   4.42107   4.61878   4.65465
 Alpha virt. eigenvalues --    4.78284   4.79058   4.79798   4.81449   4.81684
 Alpha virt. eigenvalues --    4.82319   4.82633   4.83659   4.85840   4.86032
 Alpha virt. eigenvalues --   23.41106  23.46432  23.55714  23.62495  23.69969
 Alpha virt. eigenvalues --   23.75911  23.79212  23.80335  23.81051  23.82589
 Alpha virt. eigenvalues --   23.83549  23.86385  23.86773  23.88632  23.89502
 Alpha virt. eigenvalues --   23.90031  23.91396  23.92273  23.92952  23.96589
 Alpha virt. eigenvalues --   23.96706  23.99014  23.99207  24.00589  24.08868
 Alpha virt. eigenvalues --   24.09382  24.10172  24.10832  24.11387  24.11982
 Alpha virt. eigenvalues --   24.12020  24.13214  24.13693  24.14286  24.15124
 Alpha virt. eigenvalues --   24.15151  24.15492  24.16117  24.17043  24.17074
 Alpha virt. eigenvalues --   24.19769  24.19812  24.21910  24.21982
          Condensed to atoms (all electrons):
 Mulliken charges:
               1
     1  C   -0.065284
     2  C   -0.040884
     3  C   -0.104267
     4  C   -0.043718
     5  C   -0.087558
     6  C   -0.083739
     7  C   -0.072210
     8  C   -0.052437
     9  C    0.007275
    10  C   -0.040699
    11  H    0.086145
    12  H    0.076722
    13  H    0.078817
    14  H    0.085953
    15  H    0.098481
    16  H    0.099734
    17  C   -0.077032
    18  C   -0.052437
    19  C    0.002350
    20  C   -0.040699
    21  H    0.075428
    22  H    0.077548
    23  C   -0.072210
    24  C   -0.065284
    25  C    0.007275
    26  C   -0.040884
    27  H    0.076722
    28  H    0.078817
    29  C   -0.104267
    30  C   -0.087558
    31  C   -0.043718
    32  C   -0.083739
    33  H    0.086145
    34  H    0.099734
    35  H    0.098481
    36  H    0.085953
    37  C   -0.006411
    38  C   -0.146866
    39  C   -0.065436
    40  C   -0.026847
    41  C   -0.084650
    42  C   -0.134209
    43  C   -0.034787
    44  C    0.007216
    45  C    0.013713
    46  C   -0.156737
    47  H    0.077236
    48  H    0.068571
    49  H    0.125677
    50  H    0.131793
    51  H    0.080584
    52  H    0.089460
    53  C   -0.038617
    54  C    0.007216
    55  C    0.008673
    56  C   -0.156737
    57  H    0.067187
    58  H    0.123188
    59  C   -0.034787
    60  C   -0.006411
    61  C    0.013713
    62  C   -0.146866
    63  H    0.068571
    64  H    0.125677
    65  C   -0.065436
    66  C   -0.084650
    67  C   -0.026847
    68  C   -0.134209
    69  H    0.077236
    70  H    0.089460
    71  H    0.080584
    72  H    0.131793
 Sum of Mulliken charges =   0.00000
 Mulliken charges with hydrogens summed into heavy atoms:
               1
     1  C   -0.065284
     2  C   -0.040884
     3  C   -0.018122
     4  C    0.042235
     5  C    0.012176
     6  C    0.014742
     7  C    0.004512
     8  C   -0.052437
     9  C    0.086093
    10  C   -0.040699
    17  C   -0.001603
    18  C   -0.052437
    19  C    0.079898
    20  C   -0.040699
    23  C    0.004512
    24  C   -0.065284
    25  C    0.086093
    26  C   -0.040884
    29  C   -0.018122
    30  C    0.012176
    31  C    0.042235
    32  C    0.014742
    37  C   -0.006411
    38  C   -0.146866
    39  C    0.011800
    40  C    0.104946
    41  C    0.004810
    42  C   -0.053625
    43  C    0.033784
    44  C    0.007216
    45  C    0.139390
    46  C   -0.156737
    53  C    0.028570
    54  C    0.007216
    55  C    0.131861
    56  C   -0.156737
    59  C    0.033784
    60  C   -0.006411
    61  C    0.139390
    62  C   -0.146866
    65  C    0.011800
    66  C    0.004810
    67  C    0.104946
    68  C   -0.053625
         Mulliken charges condensed to fragments:
      1     -0.037042
      2      0.037042
 Electronic spatial extent (au):  <R**2>=          24741.5610
 Charge=              0.0000 electrons
 Dipole moment (field-independent basis, Debye):
    X=             -0.7095    Y=             -2.1551    Z=              0.0000  Tot=              2.2689
 Quadrupole moment (field-independent basis, Debye-Ang):
   XX=           -245.0555   YY=           -250.5382   ZZ=           -220.3893
   XY=              0.3521   XZ=              0.0000   YZ=              0.0000
 Traceless Quadrupole moment (field-independent basis, Debye-Ang):
   XX=             -6.3945   YY=            -11.8772   ZZ=             18.2717
   XY=              0.3521   XZ=              0.0000   YZ=              0.0000
 Octapole moment (field-independent basis, Debye-Ang**2):
  XXX=            -38.2794  YYY=            153.9000  ZZZ=              0.0000  XYY=              5.9136
  XXY=            -68.2597  XXZ=              0.0000  XZZ=            -12.8152  YZZ=            -46.7863
  YYZ=              0.0000  XYZ=              0.0000
 Hexadecapole moment (field-independent basis, Debye-Ang**3):
 XXXX=          -1540.6087 YYYY=          -9799.3089 ZZZZ=         -21084.3325 XXXY=           -775.4063
 XXXZ=              0.0000 YYYX=           -784.6314 YYYZ=              0.0000 ZZZX=              0.0000
 ZZZY=              0.0000 XXYY=          -1960.0011 XXZZ=          -4193.1042 YYZZ=          -5474.1316
 XXYZ=              0.0000 YYXZ=              0.0000 ZZXY=           -228.3294
 N-N= 4.732372609617D+03 E-N=-1.339543575151D+04  KE= 1.686804792539D+03
 Symmetry A'   KE= 9.135003971163D+02
 Symmetry A"   KE= 7.733043954227D+02
 No NMR shielding tensors so no spin-rotation constants.
 Leave Link  601 at Wed Sep 27 16:39:57 2023, MaxMem=  3221225472 cpu:              54.7 elap:               1.5
 (Enter /home/center/opt/aarch64/apps/gaussian16/c01/g16/l122.exe)
 CPIOFr:  IOpCl= 0 IRwI=-1 IRwCP=  731 ICalc= -1 LCPTot=     1419224 Len1MO=     3708034 IndFrg=     1419224
 CPIOFr:  IOpCl= 0 IRwI=-1 IRwCP=  731 ICalc=  0 LCPTot=     1419224 Len1MO=     3708034 IndFrg=     5127258
 Counterpoise: doing calculation for fragment   1 using the basis set of the full-system, NewBq=T
 Leave Link  122 at Wed Sep 27 16:40:00 2023, MaxMem=  3221225472 cpu:               8.3 elap:               0.4
 (Enter /home/center/opt/aarch64/apps/gaussian16/c01/g16/l301.exe)
 Basis read from rwf:  (5D, 7F)
 No pseudopotential information found on rwf file.
 There are   528 symmetry adapted cartesian basis functions of A'  symmetry.
 There are   476 symmetry adapted cartesian basis functions of A"  symmetry.
 There are   504 symmetry adapted basis functions of A'  symmetry.
 There are   456 symmetry adapted basis functions of A"  symmetry.
   960 basis functions,  1632 primitive gaussians,  1004 cartesian basis functions
    73 alpha electrons       73 beta electrons
       nuclear repulsion energy      1494.3575060414 Hartrees.
 IExCor=  402 DFT=T Ex+Corr=B3LYP ExCW=0 ScaHFX=  0.200000
 ScaDFX=  0.800000  0.720000  1.000000  0.810000 ScalE2=  1.000000  1.000000
 IRadAn=      5 IRanWt=     -1 IRanGd=            0 ICorTp=0 IEmpDi=131
 NAtoms=   72 NActive=   72 NUniq=   40 SFac= 3.24D+00 NAtFMM=   60 NAOKFM=T Big=F
 Integral buffers will be    131072 words long.
 Raffenetti 2 integral format.
 Two-electron integral symmetry is turned on.
 R6Disp:  Grimme-D3 Dispersion energy=       -0.0303938888 Hartrees.
 Nuclear repulsion after empirical dispersion term =     1494.3271121525 Hartrees.
 No density basis found on file    718.
 Leave Link  301 at Wed Sep 27 16:40:02 2023, MaxMem=  3221225472 cpu:               2.2 elap:               0.1
 (Enter /home/center/opt/aarch64/apps/gaussian16/c01/g16/l302.exe)
 NPDir=0 NMtPBC=     1 NCelOv=     1 NCel=       1 NClECP=     1 NCelD=      1
         NCelK=      1 NCelE2=     1 NClLst=     1 CellRange=     0.0.
 One-electron integrals computed using PRISM.
 One-electron integral symmetry used in STVInt
 NBasis=   960 RedAO= T EigKep=  3.68D-05  NBF=   504   456
 NBsUse=   960 1.00D-06 EigRej= -1.00D+00 NBFU=   504   456
 Precomputing XC quadrature grid using
 IXCGrd= 4 IRadAn=           5 IRanWt=          -1 IRanGd=           0 AccXCQ= 0.00D+00.
 Generated NRdTot=       0 NPtTot=           0 NUsed=           0 NTot=          32
 NSgBfM=   991   991   991   991   991 MxSgAt=    72 MxSgA2=    72.
 Leave Link  302 at Wed Sep 27 16:40:06 2023, MaxMem=  3221225472 cpu:              59.7 elap:               1.6
 (Enter /home/center/opt/aarch64/apps/gaussian16/c01/g16/l303.exe)
 DipDrv:  MaxL=1.
 Leave Link  303 at Wed Sep 27 16:40:09 2023, MaxMem=  3221225472 cpu:              14.7 elap:               0.4
 (Enter /home/center/opt/aarch64/apps/gaussian16/c01/g16/l401.exe)
 ExpMin= 1.03D-01 ExpMax= 4.56D+03 ExpMxC= 6.82D+02 IAcc=3 IRadAn=         5 AccDes= 0.00D+00
 Harris functional with IExCor=  402 and IRadAn=       5 diagonalized for initial guess.
 HarFok:  IExCor=  402 AccDes= 0.00D+00 IRadAn=         5 IDoV= 1 UseB2=F ITyADJ=14
 ICtDFT=  3500011 ScaDFX=  1.000000  1.000000  1.000000  1.000000
 FoFCou: FMM=F IPFlag=           0 FMFlag=      100000 FMFlg1=        2000
         NFxFlg=           0 DoJE=T BraDBF=F KetDBF=T FulRan=T
         wScrn=  0.000000 ICntrl=       500 IOpCl=  0 I1Cent=   200000004 NGrid=           0
         NMat0=    1 NMatS0=      1 NMatT0=    0 NMatD0=    1 NMtDS0=    0 NMtDT0=    0
 Petite list used in FoFCou.
 Harris En= -847.067675476555    
 JPrj=0 DoOrth=F DoCkMO=F.
 Initial guess orbital symmetries:
       Occupied  (A") (A') (A') (A") (A") (A') (A") (A') (A") (A')
                 (A") (A') (A') (A') (A") (A') (A") (A') (A") (A')
                 (A') (A") (A') (A") (A') (A") (A') (A') (A") (A')
                 (A") (A") (A') (A') (A") (A") (A') (A") (A') (A')
                 (A') (A") (A") (A") (A') (A') (A") (A') (A') (A")
                 (A') (A") (A") (A') (A') (A") (A') (A") (A') (A")
                 (A") (A') (A') (A") (A') (A") (A') (A") (A') (A')
                 (A") (A") (A')
       Virtual   (A') (A") (A") (A') (A') (A") (A') (A") (A') (A")
                 (A') (A') (A") (A') (A") (A') (A') (A") (A') (A")
                 (A") (A") (A') (A') (A') (A") (A') (A') (A") (A')
                 (A') (A") (A") (A') (A') (A") (A') (A") (A") (A')
                 (A') (A") (A") (A') (A") (A') (A") (A') (A") (A')
                 (A') (A") (A') (A') (A") (A') (A") (A") (A') (A')
                 (A') (A") (A') (A') (A") (A") (A") (A") (A') (A")
                 (A') (A') (A") (A') (A') (A') (A') (A") (A') (A")
                 (A') (A") (A") (A") (A') (A') (A') (A") (A") (A')
                 (A") (A") (A") (A') (A') (A') (A') (A') (A") (A')
                 (A") (A") (A') (A') (A") (A") (A') (A') (A') (A")
                 (A") (A') (A") (A") (A') (A") (A') (A") (A') (A")
                 (A') (A") (A') (A") (A') (A') (A') (A") (A") (A')
                 (A') (A') (A") (A") (A') (A") (A') (A") (A') (A')
                 (A') (A") (A') (A") (A") (A') (A") (A') (A") (A')
                 (A") (A') (A') (A") (A") (A') (A") (A') (A") (A')
                 (A') (A") (A') (A') (A") (A") (A') (A") (A') (A")
                 (A') (A") (A") (A') (A') (A') (A") (A') (A") (A")
                 (A") (A') (A') (A") (A') (A") (A') (A') (A") (A")
                 (A') (A') (A') (A") (A') (A") (A') (A") (A') (A')
                 (A") (A') (A") (A') (A") (A") (A") (A") (A') (A")
                 (A') (A") (A') (A') (A") (A') (A') (A') (A") (A")
                 (A") (A') (A') (A") (A') (A") (A') (A') (A") (A')
                 (A') (A") (A") (A") (A') (A") (A') (A") (A') (A')
                 (A") (A') (A") (A') (A') (A") (A") (A") (A') (A")
                 (A') (A') (A') (A") (A') (A") (A") (A') (A") (A')
                 (A") (A') (A') (A') (A") (A') (A") (A") (A") (A')
                 (A') (A') (A") (A") (A') (A") (A') (A") (A') (A")
                 (A") (A') (A') (A") (A") (A') (A') (A") (A') (A')
                 (A") (A') (A") (A') (A') (A") (A') (A") (A") (A')
                 (A') (A') (A") (A') (A") (A") (A') (A") (A') (A")
                 (A") (A') (A") (A') (A') (A') (A") (A") (A') (A")
                 (A') (A") (A') (A") (A') (A') (A") (A') (A") (A')
                 (A') (A') (A") (A') (A") (A') (A") (A') (A") (A')
                 (A") (A") (A') (A") (A") (A') (A') (A") (A') (A')
                 (A") (A") (A') (A') (A") (A') (A') (A") (A') (A')
                 (A") (A') (A") (A') (A") (A') (A") (A") (A') (A')
                 (A") (A") (A") (A') (A") (A") (A') (A') (A") (A')
                 (A') (A") (A") (A") (A') (A') (A') (A") (A') (A")
                 (A') (A") (A") (A') (A') (A') (A") (A') (A") (A")
                 (A') (A') (A") (A") (A') (A") (A") (A') (A') (A")
                 (A") (A') (A') (A') (A") (A') (A") (A') (A") (A')
                 (A") (A') (A") (A") (A") (A') (A") (A") (A') (A')
                 (A') (A") (A') (A') (A') (A") (A") (A') (A") (A')
                 (A') (A") (A') (A") (A') (A") (A') (A') (A") (A")
                 (A') (A") (A') (A") (A") (A") (A') (A') (A') (A")
                 (A') (A") (A') (A") (A") (A') (A') (A") (A') (A")
                 (A') (A') (A") (A") (A") (A') (A") (A') (A") (A')
                 (A") (A') (A") (A') (A') (A") (A') (A") (A") (A")
                 (A') (A') (A') (A") (A') (A') (A") (A") (A') (A")
                 (A') (A") (A') (A') (A") (A") (A") (A') (A') (A")
                 (A') (A') (A") (A") (A") (A') (A') (A") (A') (A')
                 (A") (A') (A") (A') (A") (A') (A") (A") (A') (A')
                 (A") (A') (A') (A") (A") (A') (A") (A') (A') (A")
                 (A') (A') (A") (A") (A') (A") (A') (A') (A") (A')
                 (A") (A') (A") (A') (A") (A') (A") (A') (A") (A')
                 (A') (A") (A") (A') (A") (A") (A') (A') (A") (A')
                 (A") (A') (A') (A') (A") (A') (A') (A") (A') (A")
                 (A") (A") (A") (A') (A') (A") (A') (A") (A") (A')
                 (A') (A') (A') (A') (A") (A") (A') (A") (A') (A")
                 (A") (A') (A") (A") (A') (A") (A') (A') (A") (A')
                 (A") (A') (A") (A') (A') (A") (A') (A") (A') (A")
                 (A') (A') (A") (A") (A') (A") (A') (A") (A') (A")
                 (A") (A") (A') (A") (A') (A") (A') (A') (A') (A')
                 (A") (A") (A") (A") (A') (A') (A') (A") (A") (A")
                 (A') (A') (A') (A") (A") (A') (A") (A') (A") (A')
                 (A") (A') (A") (A") (A') (A") (A') (A') (A') (A")
                 (A') (A") (A') (A") (A') (A") (A') (A") (A') (A')
                 (A") (A') (A') (A") (A') (A") (A') (A') (A") (A")
                 (A') (A") (A') (A") (A') (A") (A") (A') (A') (A')
                 (A") (A") (A') (A") (A') (A') (A") (A') (A") (A')
[...]
                 (A') (A') (A") (A") (A') (A") (A') (A") (A') (A')
                 (A") (A") (A')
       Virtual   (A') (A") (A") (A') (A') (A") (A') (A') (A') (A")
                 (A") (A') (A") (A') (A") (A') (A") (A") (A') (A")
                 (A') (A') (A") (A') (A") (A') (A') (A') (A') (A")
                 (A") (A") (A") (A') (A') (A") (A') (A") (A') (A")
                 (A') (A') (A') (A") (A') (A") (A") (A') (A') (A")
                 (A") (A') (A') (A") (A') (A") (A") (A") (A') (A")
                 (A') (A') (A') (A') (A') (A") (A') (A') (A") (A")
                 (A") (A') (A') (A') (A") (A') (A") (A") (A") (A')
                 (A') (A") (A') (A") (A") (A') (A") (A') (A') (A')
                 (A') (A') (A") (A") (A") (A") (A') (A") (A') (A")
                 (A') (A') (A') (A") (A") (A') (A') (A") (A') (A")
                 (A') (A") (A") (A") (A') (A') (A") (A') (A') (A")
                 (A') (A") (A") (A') (A') (A") (A') (A") (A') (A")
                 (A") (A') (A') (A') (A') (A") (A") (A") (A') (A")
                 (A') (A") (A') (A") (A') (A') (A") (A") (A') (A")
                 (A') (A") (A') (A") (A') (A') (A") (A') (A") (A")
                 (A') (A") (A') (A') (A") (A") (A') (A") (A') (A")
                 (A') (A') (A") (A') (A') (A") (A") (A') (A') (A')
                 (A") (A') (A") (A") (A") (A") (A') (A") (A') (A')
                 (A") (A') (A") (A') (A') (A') (A") (A') (A") (A')
                 (A") (A") (A') (A') (A") (A") (A') (A') (A") (A')
                 (A') (A') (A') (A") (A") (A") (A") (A') (A') (A")
                 (A') (A") (A") (A') (A") (A') (A") (A') (A") (A')
                 (A") (A') (A') (A") (A') (A") (A") (A') (A') (A")
                 (A") (A') (A') (A") (A") (A') (A") (A") (A") (A')
                 (A') (A") (A') (A') (A") (A') (A') (A") (A') (A")
                 (A") (A') (A") (A') (A') (A") (A") (A") (A') (A')
                 (A") (A') (A') (A") (A") (A") (A') (A") (A') (A')
                 (A") (A') (A") (A') (A") (A') (A') (A') (A") (A')
                 (A") (A") (A') (A') (A") (A") (A') (A") (A') (A")
                 (A') (A') (A") (A") (A') (A') (A") (A') (A') (A')
                 (A") (A") (A') (A") (A') (A") (A') (A") (A') (A')
                 (A') (A") (A") (A") (A') (A") (A') (A') (A') (A")
                 (A") (A') (A") (A') (A') (A") (A') (A") (A") (A')
                 (A') (A") (A') (A") (A") (A') (A') (A") (A') (A")
                 (A') (A") (A') (A") (A') (A") (A") (A') (A') (A")
                 (A') (A") (A') (A') (A") (A") (A') (A") (A') (A')
                 (A") (A') (A") (A') (A') (A") (A') (A") (A') (A")
                 (A") (A') (A") (A') (A") (A') (A") (A') (A') (A")
                 (A") (A') (A") (A') (A') (A") (A") (A') (A') (A")
                 (A') (A") (A') (A") (A') (A') (A")
 The electronic state is 1-A'.
 Alpha  occ. eigenvalues --  -10.18931 -10.18930 -10.18896 -10.18895 -10.18848
 Alpha  occ. eigenvalues --  -10.18848 -10.18813 -10.18813 -10.17956 -10.17955
 Alpha  occ. eigenvalues --  -10.17920 -10.17920 -10.17919 -10.17919 -10.17875
 Alpha  occ. eigenvalues --  -10.17875 -10.17863 -10.17863 -10.17808 -10.17808
 Alpha  occ. eigenvalues --  -10.17781 -10.17781  -0.89340  -0.87865  -0.85549
 Alpha  occ. eigenvalues --   -0.82415  -0.79820  -0.78521  -0.78314  -0.75991
 Alpha  occ. eigenvalues --   -0.74255  -0.72901  -0.69196  -0.67344  -0.62728
 Alpha  occ. eigenvalues --   -0.62370  -0.61108  -0.59964  -0.59301  -0.57689
 Alpha  occ. eigenvalues --   -0.52709  -0.52573  -0.52293  -0.49654  -0.48513
 Alpha  occ. eigenvalues --   -0.47160  -0.46110  -0.45590  -0.45476  -0.43928
 Alpha  occ. eigenvalues --   -0.43182  -0.42578  -0.41808  -0.41572  -0.41386
 Alpha  occ. eigenvalues --   -0.40692  -0.40405  -0.39579  -0.38193  -0.36732
 Alpha  occ. eigenvalues --   -0.36341  -0.35550  -0.34094  -0.33809  -0.33058
 Alpha  occ. eigenvalues --   -0.32930  -0.31612  -0.29665  -0.28406  -0.26623
 Alpha  occ. eigenvalues --   -0.24364  -0.22582  -0.17855
 Alpha virt. eigenvalues --   -0.09755  -0.04464  -0.02747  -0.00147   0.02073
 Alpha virt. eigenvalues --    0.02370   0.03189   0.04746   0.04859   0.04871
 Alpha virt. eigenvalues --    0.06161   0.06575   0.07968   0.08162   0.08303
 Alpha virt. eigenvalues --    0.09607   0.10049   0.11524   0.11533   0.13796
 Alpha virt. eigenvalues --    0.14111   0.14670   0.18092   0.18194   0.18832
 Alpha virt. eigenvalues --    0.19391   0.22815   0.23002   0.24379   0.24942
 Alpha virt. eigenvalues --    0.25581   0.27528   0.27575   0.28012   0.28228
 Alpha virt. eigenvalues --    0.28947   0.29389   0.30158   0.30759   0.31175
 Alpha virt. eigenvalues --    0.32897   0.34528   0.36420   0.36484   0.37134
 Alpha virt. eigenvalues --    0.37503   0.37629   0.37651   0.38116   0.38643
 Alpha virt. eigenvalues --    0.39094   0.39439   0.39739   0.40236   0.40435
 Alpha virt. eigenvalues --    0.41918   0.41926   0.41940   0.42289   0.42318
 Alpha virt. eigenvalues --    0.42643   0.43748   0.44233   0.44835   0.45295
 Alpha virt. eigenvalues --    0.45683   0.45924   0.45953   0.46379   0.47165
 Alpha virt. eigenvalues --    0.47805   0.47809   0.47978   0.48073   0.48231
 Alpha virt. eigenvalues --    0.48568   0.49414   0.49572   0.51377   0.51846
 Alpha virt. eigenvalues --    0.52370   0.53118   0.53671   0.55998   0.57923
 Alpha virt. eigenvalues --    0.57955   0.59048   0.59201   0.60433   0.60585
 Alpha virt. eigenvalues --    0.60693   0.61101   0.61690   0.62105   0.62173
 Alpha virt. eigenvalues --    0.63432   0.63481   0.64458   0.64535   0.65533
 Alpha virt. eigenvalues --    0.66693   0.66910   0.67680   0.67724   0.70658
 Alpha virt. eigenvalues --    0.71305   0.71405   0.71494   0.72803   0.73989
 Alpha virt. eigenvalues --    0.75405   0.75894   0.76289   0.77801   0.77809
 Alpha virt. eigenvalues --    0.78943   0.79160   0.79723   0.81162   0.81509
 Alpha virt. eigenvalues --    0.82881   0.83001   0.84383   0.84585   0.84713
 Alpha virt. eigenvalues --    0.88087   0.89711   0.89765   0.91536   0.92083
 Alpha virt. eigenvalues --    0.92578   0.93749   0.95806   0.96107   0.96442
 Alpha virt. eigenvalues --    0.96590   0.96905   0.98547   1.00356   1.01118
 Alpha virt. eigenvalues --    1.02686   1.03027   1.03354   1.04405   1.05244
 Alpha virt. eigenvalues --    1.05439   1.05525   1.05950   1.07395   1.07547
 Alpha virt. eigenvalues --    1.07686   1.08438   1.10005   1.10036   1.12070
 Alpha virt. eigenvalues --    1.13223   1.13544   1.13650   1.14526   1.15341
 Alpha virt. eigenvalues --    1.17432   1.18332   1.19657   1.20432   1.23014
 Alpha virt. eigenvalues --    1.23618   1.27884   1.28234   1.30579   1.32076
 Alpha virt. eigenvalues --    1.32743   1.34942   1.37641   1.39236   1.39896
 Alpha virt. eigenvalues --    1.39942   1.40725   1.42751   1.43476   1.43554
 Alpha virt. eigenvalues --    1.45057   1.46086   1.47119   1.47538   1.48841
 Alpha virt. eigenvalues --    1.49280   1.49417   1.50258   1.50674   1.52268
 Alpha virt. eigenvalues --    1.52650   1.53402   1.54331   1.54372   1.54781
 Alpha virt. eigenvalues --    1.54807   1.57107   1.57715   1.58569   1.59882
 Alpha virt. eigenvalues --    1.60106   1.62692   1.63242   1.64856   1.66641
 Alpha virt. eigenvalues --    1.69292   1.69605   1.69709   1.70649   1.71804
 Alpha virt. eigenvalues --    1.72459   1.72619   1.73075   1.73096   1.73680
 Alpha virt. eigenvalues --    1.77494   1.78519   1.79157   1.79419   1.80511
 Alpha virt. eigenvalues --    1.81616   1.81887   1.82058   1.83581   1.84039
 Alpha virt. eigenvalues --    1.85487   1.87392   1.87456   1.87577   1.87728
 Alpha virt. eigenvalues --    1.88131   1.88613   1.90743   1.91387   1.92190
 Alpha virt. eigenvalues --    1.92193   1.92572   1.92670   1.93517   1.93938
 Alpha virt. eigenvalues --    1.94544   1.95483   1.97262   1.99429   2.00088
 Alpha virt. eigenvalues --    2.00602   2.01362   2.03019   2.05757   2.08293
 Alpha virt. eigenvalues --    2.09111   2.09256   2.09792   2.12192   2.14098
 Alpha virt. eigenvalues --    2.15528   2.15584   2.17200   2.19751   2.20833
 Alpha virt. eigenvalues --    2.21576   2.22525   2.23381   2.24503   2.26441
 Alpha virt. eigenvalues --    2.26972   2.27242   2.27719   2.28046   2.29391
 Alpha virt. eigenvalues --    2.33301   2.35725   2.39155   2.39384   2.40817
 Alpha virt. eigenvalues --    2.42649   2.43076   2.45776   2.45994   2.46870
 Alpha virt. eigenvalues --    2.51623   2.51954   2.53354   2.53485   2.55138
 Alpha virt. eigenvalues --    2.56159   2.58701   2.58838   2.59764   2.59776
 Alpha virt. eigenvalues --    2.60682   2.61147   2.61719   2.62222   2.63349
 Alpha virt. eigenvalues --    2.63999   2.64478   2.66054   2.66794   2.67121
 Alpha virt. eigenvalues --    2.67374   2.68356   2.68872   2.68876   2.69372
 Alpha virt. eigenvalues --    2.69557   2.69907   2.70083   2.70281   2.73482
 Alpha virt. eigenvalues --    2.74771   2.74836   2.76066   2.77101   2.77577
 Alpha virt. eigenvalues --    2.78232   2.78455   2.78850   2.80822   2.82359
 Alpha virt. eigenvalues --    2.85535   2.85993   2.86737   2.87294   2.90966
 Alpha virt. eigenvalues --    2.91783   2.92195   2.93676   2.95232   2.95887
 Alpha virt. eigenvalues --    2.99270   2.99858   3.03165   3.05604   3.06852
 Alpha virt. eigenvalues --    3.07371   3.15988   3.16029   3.16647   3.19843
 Alpha virt. eigenvalues --    3.20017   3.23601   3.29134   3.29680   3.31610
 Alpha virt. eigenvalues --    3.35095   3.35458   3.35677   3.35858   3.38023
 Alpha virt. eigenvalues --    3.39887   3.41413   3.44960   3.45362   3.47993
 Alpha virt. eigenvalues --    3.48278   3.50401   3.53073   3.57439   3.58649
 Alpha virt. eigenvalues --    3.61466   3.62620   3.63208   3.63698   3.65910
 Alpha virt. eigenvalues --    3.67534   3.67678   4.00384   4.00442   4.01859
 Alpha virt. eigenvalues --    4.02182   4.16133   4.16678   4.17360   4.21240
 Alpha virt. eigenvalues --    4.22396   4.22517   4.25488   4.38492   4.62290
 Alpha virt. eigenvalues --    4.79179   4.79740   4.80562   4.82562   4.83014
 Alpha virt. eigenvalues --   23.39176  23.54541  23.69085  23.77378  23.80419
 Alpha virt. eigenvalues --   23.81537  23.86099  23.89067  23.89154  23.92210
 Alpha virt. eigenvalues --   23.97563  23.98365  24.09049  24.09932  24.10529
 Alpha virt. eigenvalues --   24.12220  24.13779  24.14375  24.15775  24.15810
 Alpha virt. eigenvalues --   24.20452  24.20497
          Condensed to atoms (all electrons):
 Mulliken charges:
               1
     1  C    0.000000
     2  C    0.000000
     3  C    0.000000
     4  C    0.000000
     5  C    0.000000
     6  C    0.000000
     7  C    0.000000
     8  C    0.000000
     9  C    0.000000
    10  C    0.000000
    11  H    0.000000
    12  H    0.000000
    13  H    0.000000
    14  H    0.000000
    15  H    0.000000
    16  H    0.000000
    17  C    0.000000
    18  C    0.000000
    19  C    0.000000
    20  C    0.000000
    21  H    0.000000
    22  H    0.000000
    23  C    0.000000
    24  C    0.000000
    25  C    0.000000
    26  C    0.000000
    27  H    0.000000
    28  H    0.000000
    29  C    0.000000
    30  C    0.000000
    31  C    0.000000
    32  C    0.000000
    33  H    0.000000
    34  H    0.000000
    35  H    0.000000
    36  H    0.000000
    37  C   -0.059168
    38  C   -0.059168
    39  C   -0.055977
    40  C   -0.055977
    41  C   -0.092198
    42  C   -0.092198
    43  C   -0.016525
    44  C   -0.054498
    45  C   -0.016525
    46  C   -0.054498
    47  H    0.082122
    48  H    0.074853
    49  H    0.074853
    50  H    0.082122
    51  H    0.094847
    52  H    0.094847
    53  C   -0.020341
    54  C   -0.054498
    55  C   -0.020341
    56  C   -0.054498
    57  H    0.073428
    58  H    0.073428
    59  C   -0.016525
    60  C   -0.059168
    61  C   -0.016525
    62  C   -0.059168
    63  H    0.074853
    64  H    0.074853
    65  C   -0.055977
    66  C   -0.092198
    67  C   -0.055977
    68  C   -0.092198
    69  H    0.082122
    70  H    0.094847
    71  H    0.094847
    72  H    0.082122
 Sum of Mulliken charges =   0.00000
 Mulliken charges with hydrogens summed into heavy atoms:
               1
     1  C    0.000000
     2  C    0.000000
     3  C    0.000000
     4  C    0.000000
     5  C    0.000000
     6  C    0.000000
     7  C    0.000000
     8  C    0.000000
     9  C    0.000000
    10  C    0.000000
    17  C    0.000000
    18  C    0.000000
    19  C    0.000000
    20  C    0.000000
    23  C    0.000000
    24  C    0.000000
    25  C    0.000000
    26  C    0.000000
    29  C    0.000000
    30  C    0.000000
    31  C    0.000000
    32  C    0.000000
    37  C   -0.059168
    38  C   -0.059168
    39  C    0.026144
    40  C    0.026144
    41  C    0.002649
    42  C    0.002649
    43  C    0.058328
    44  C   -0.054498
    45  C    0.058328
    46  C   -0.054498
    53  C    0.053087
    54  C   -0.054498
    55  C    0.053087
    56  C   -0.054498
    59  C    0.058328
    60  C   -0.059168
    61  C    0.058328
    62  C   -0.059168
    65  C    0.026144
    66  C    0.002649
    67  C    0.026144
    68  C    0.002649
         Mulliken charges condensed to fragments:
      1      0.000000
      2      0.000000
 Electronic spatial extent (au):  <R**2>=          13241.0873
 Charge=              0.0000 electrons
 Dipole moment (field-independent basis, Debye):
    X=              0.0000    Y=              0.0000    Z=              0.0000  Tot=              0.0000
 Quadrupole moment (field-independent basis, Debye-Ang):
   XX=           -136.3921   YY=           -110.7480   ZZ=           -109.0115
   XY=              0.0000   XZ=              0.0000   YZ=              0.0000
 Traceless Quadrupole moment (field-independent basis, Debye-Ang):
   XX=            -17.6749   YY=              7.9692   ZZ=              9.7057
   XY=              0.0000   XZ=              0.0000   YZ=              0.0000
 Octapole moment (field-independent basis, Debye-Ang**2):
  XXX=            795.6610  YYY=            646.0631  ZZZ=              0.0000  XYY=            215.3544
  XXY=            265.2203  XXZ=              0.0000  XZZ=            211.9776  YZZ=            211.9776
  YYZ=              0.0000  XYZ=              0.0000
 Hexadecapole moment (field-independent basis, Debye-Ang**3):
 XXXX=          -3248.7987 YYYY=          -3629.3128 ZZZZ=         -10461.4324 XXXY=          -1547.1974
 XXXZ=              0.0000 YYYX=          -1256.2979 YYYZ=              0.0000 ZZZX=              0.0000
 ZZZY=              0.0000 XXYY=          -1190.9138 XXZZ=          -2620.1316 YYZZ=          -2381.4140
 XXYZ=              0.0000 YYXZ=              0.0000 ZZXY=           -412.1996
 N-N= 1.494327112237D+03 E-N=-4.953709176031D+03  KE= 8.433374905124D+02
 Symmetry A'   KE= 4.567052305464D+02
 Symmetry A"   KE= 3.866322599660D+02
 No NMR shielding tensors so no spin-rotation constants.
 Leave Link  601 at Wed Sep 27 16:57:30 2023, MaxMem=  3221225472 cpu:              18.8 elap:               0.5
 (Enter /home/center/opt/aarch64/apps/gaussian16/c01/g16/l122.exe)
 CPIOFr:  IOpCl= 0 IRwI=-1 IRwCP=  731 ICalc=  4 LCPTot=     1419224 Len1MO=     3708034 IndFrg=    19959394
 Restoring MOs from calculation   1 to rwf.
 CPIOFr:  IOpCl= 0 IRwI=-2 IRwCP=  731 ICalc=  0 LCPTot=     1419224 Len1MO=     3708034 IndFrg=     5127258
 Counterpoise corrected energy =   -1694.051175511743
                   BSSE energy =       0.001888214200
              sum of fragments =   -1694.039683044262
           complexation energy =      -8.40 kcal/mole (raw)
           complexation energy =      -7.21 kcal/mole (corrected)
 Leave Link  122 at Wed Sep 27 16:57:33 2023, MaxMem=  3221225472 cpu:               8.3 elap:               0.5
 (Enter /home/center/opt/aarch64/apps/gaussian16/c01/g16/l9999.exe)

 Test job not archived.
 1\1\GINC-FX0464\SP\RB3LYP\6-311G(d,p)\C44H28\Z40145W\27-Sep-2023\0\\#P
  TEST b3lyp/6-311G** EmpiricalDispersion=GD3 counterpoise=2\\pentacene
 _A1=0_A2=0_A3=45_p2\\0,1\C,0,-0.5039478476,0.5239478476,-3.6612755801\
 C,0,0.5239480325,-0.5039480325,-3.6612755629\C,0,-0.9861248463,1.00612
 48463,-4.9235927708\C,0,1.0061250889,-0.9861250889,-4.9235926697\C,0,-
 0.4963213507,0.5163213507,-6.096356521\C,0,0.5163216812,-0.4963216812,
 -6.0963564796\C,0,-0.9844684311,1.0044684311,-2.4533174875\C,0,-0.5044
 88426,0.524488426,-1.2140288145\C,0,1.0044685359,-0.9844685359,-2.4533
 173917\C,0,0.5244885437,-0.5044885437,-1.2140288362\H,0,-1.7533559667,
 1.7733559667,-4.9232600459\H,0,-1.7521866813,1.7721866813,-2.453928581
 5\H,0,1.7721859268,-1.7521859268,-2.4539284818\H,0,1.7733558421,-1.753
 3558421,-4.9232597785\H,0,0.8905568758,-0.8705568758,-7.0425276922\H,0
 ,-0.8705565046,0.8905565046,-7.042527775\C,0,-0.9848184961,1.004818496
 1,0.0099998782\C,0,-0.5044883957,0.5244883957,1.2340295553\C,0,1.00481
 85643,-0.9848185643,0.0099998696\C,0,0.5244885146,-0.5044885146,1.2340
 295261\H,0,-1.7524699697,1.7724699697,0.0099999205\H,0,1.772468921,-1.
 752468921,0.0099999641\C,0,-0.9844683048,1.0044683048,2.4733171385\C,0
 ,-0.5039477114,0.5239477114,3.681276331\C,0,1.0044684211,-0.9844684211
 ,2.4733170835\C,0,0.5239479079,-0.5039479079,3.6812763217\H,0,-1.75218
 65527,1.7721865527,2.4739285326\H,0,1.7721858092,-1.7521858092,2.47392
 83796\C,0,-0.9861245177,1.0061245177,4.9435920588\C,0,-0.4963209372,0.
 5163209372,6.116356633\C,0,1.0061247659,-0.9861247659,4.9435919377\C,0
 ,0.5163212637,-0.4963212637,6.1163566075\H,0,-1.7533556504,1.773355650
 4,4.9432601504\H,0,-0.8705567426,0.8905567426,7.0625274368\H,0,0.89055
 70967,-0.8705570967,7.0625272142\H,0,1.7733555414,-1.7533555414,4.9432
 599297\C,0,4.9960521524,0.5239478476,-3.6612755801\C,0,6.0239480325,-0
 .5039480325,-3.6612755629\C,0,4.5138751537,1.0061248463,-4.9235927708\
 C,0,6.5061250889,-0.9861250889,-4.9235926697\C,0,5.0036786493,0.516321
 3507,-6.096356521\C,0,6.0163216812,-0.4963216812,-6.0963564796\C,0,4.5
 155315689,1.0044684311,-2.4533174875\C,0,4.995511574,0.524488426,-1.21
 40288145\C,0,6.5044685359,-0.9844685359,-2.4533173917\C,0,6.0244885437
 ,-0.5044885437,-1.2140288362\H,0,3.7466440333,1.7733559667,-4.92326004
 59\H,0,3.7478133187,1.7721866813,-2.4539285815\H,0,7.2721859268,-1.752
 1859268,-2.4539284818\H,0,7.2733558421,-1.7533558421,-4.9232597785\H,0
 ,6.3905568758,-0.8705568758,-7.0425276922\H,0,4.6294434954,0.890556504
 6,-7.042527775\C,0,4.5151815039,1.0048184961,0.0099998782\C,0,4.995511
 6043,0.5244883957,1.2340295553\C,0,6.5048185643,-0.9848185643,0.009999
 8696\C,0,6.0244885146,-0.5044885146,1.2340295261\H,0,3.7475300303,1.77
 24699697,0.0099999205\H,0,7.272468921,-1.752468921,0.0099999641\C,0,4.
 5155316952,1.0044683048,2.4733171385\C,0,4.9960522886,0.5239477114,3.6
 81276331\C,0,6.5044684211,-0.9844684211,2.4733170835\C,0,6.0239479079,
 -0.5039479079,3.6812763217\H,0,3.7478134473,1.7721865527,2.4739285326\
 H,0,7.2721858092,-1.7521858092,2.4739283796\C,0,4.5138754823,1.0061245
 177,4.9435920588\C,0,5.0036790628,0.5163209372,6.116356633\C,0,6.50612
 47659,-0.9861247659,4.9435919377\C,0,6.0163212637,-0.4963212637,6.1163
 566075\H,0,3.7466443496,1.7733556504,4.9432601504\H,0,4.6294432574,0.8
 905567426,7.0625274368\H,0,6.3905570967,-0.8705570967,7.0625272142\H,0
 ,7.2733555414,-1.7533555414,4.9432599297\\Version=Fujitsu-Arm-G16RevC.
 01\State=1-A'\HF=-847.0198415\RMSD=3.181e-09\Dipole=-0.0000009,0.00000
 11,0.\Quadrupole=-8.6579023,-5.5609791,14.2188813,-17.615403,0.,0.\PG=
 CS [SG(C4H4),X(C40H24)]\\@


 THERE ARE PEOPLE SO ADDICTED TO EXAGERATING THEY
 CAN'T TELL THE TRUTH WITHOUT LYING. -- FORTUNE COOKIE
 Job cpu time:       0 days  3 hours 22 minutes 41.7 seconds.
 Elapsed time:       0 days  0 hours  5 minutes 16.1 seconds.
 File lengths (MBytes):  RWF=    718 Int=      0 D2E=      0 Chk=    208 Scr=      1
 Normal termination of Gaussian 16 at Wed Sep 27 16:57:39 2023.
