 Entering Gaussian System, Link 0=g16
 Initial command:
 /home/center/opt/aarch64/apps/gaussian16/c01/g16/l1.exe "/data/tmp/Gtmp/1006990/Gau-51.inp" -scrdir="/data/tmp/Gtmp/1006990/"
 Entering Link 1 = /home/center/opt/aarch64/apps/gaussian16/c01/g16/l1.exe PID=        52.
  
 Copyright (c) 1988-2019, Gaussian, Inc.  All Rights Reserved.
  
 This is part of the Gaussian(R) 16 program.  It is based on
 the Gaussian(R) 09 system (copyright 2009, Gaussian, Inc.),
 the Gaussian(R) 03 system (copyright 2003, Gaussian, Inc.),
 the Gaussian(R) 98 system (copyright 1998, Gaussian, Inc.),
 the Gaussian(R) 94 system (copyright 1995, Gaussian, Inc.),
 the Gaussian 92(TM) system (copyright 1992, Gaussian, Inc.),
 the Gaussian 90(TM) system (copyright 1990, Gaussian, Inc.),
 the Gaussian 88(TM) system (copyright 1988, Gaussian, Inc.),
 the Gaussian 86(TM) system (copyright 1986, Carnegie Mellon
 University), and the Gaussian 82(TM) system (copyright 1983,
 Carnegie Mellon University). Gaussian is a federally registered
 trademark of Gaussian, Inc.
  
 This software contains proprietary and confidential information,
 including trade secrets, belonging to Gaussian, Inc.
  
 This software is provided under written license and may be
 used, copied, transmitted, or stored only in accord with that
 written license.
  
 The following legend is applicable only to US Government
 contracts under FAR:
  
                    RESTRICTED RIGHTS LEGEND
  
 Use, reproduction and disclosure by the US Government is
 subject to restrictions as set forth in subparagraphs (a)
 and (c) of the Commercial Computer Software - Restricted
 Rights clause in FAR 52.227-19.
  
 Gaussian, Inc.
 340 Quinnipiac St., Bldg. 40, Wallingford CT 06492
  
  
 ---------------------------------------------------------------
 Warning -- This program may not be used in any manner that
 competes with the business of Gaussian, Inc. or will provide
 assistance to any competitor of Gaussian, Inc.  The licensee
 of this program is prohibited from giving any competitor of
 Gaussian, Inc. access to this program.  By using this program,
 the user acknowledges that Gaussian, Inc. is engaged in the
 business of creating and licensing software in the field of
 computational chemistry and represents and warrants to the
 licensee that it is not a competitor of Gaussian, Inc. and that
 it will not use this program in any manner prohibited above.
 ---------------------------------------------------------------
  

 Cite this work as:
 Gaussian 16, Revision C.01,
 M. J. Frisch, G. W. Trucks, H. B. Schlegel, G. E. Scuseria, 
 M. A. Robb, J. R. Cheeseman, G. Scalmani, V. Barone, 
 G. A. Petersson, H. Nakatsuji, X. Li, M. Caricato, A. V. Marenich, 
 J. Bloino, B. G. Janesko, R. Gomperts, B. Mennucci, H. P. Hratchian, 
 J. V. Ortiz, A. F. Izmaylov, J. L. Sonnenberg, D. Williams-Young, 
 F. Ding, F. Lipparini, F. Egidi, J. Goings, B. Peng, A. Petrone, 
 T. Henderson, D. Ranasinghe, V. G. Zakrzewski, J. Gao, N. Rega, 
 G. Zheng, W. Liang, M. Hada, M. Ehara, K. Toyota, R. Fukuda, 
 J. Hasegawa, M. Ishida, T. Nakajima, Y. Honda, O. Kitao, H. Nakai, 
 T. Vreven, K. Throssell, J. A. Montgomery, Jr., J. E. Peralta, 
 F. Ogliaro, M. J. Bearpark, J. J. Heyd, E. N. Brothers, K. N. Kudin, 
 V. N. Staroverov, T. A. Keith, R. Kobayashi, J. Normand, 
 K. Raghavachari, A. P. Rendell, J. C. Burant, S. S. Iyengar, 
 J. Tomasi, M. Cossi, J. M. Millam, M. Klene, C. Adamo, R. Cammi, 
 J. W. Ochterski, R. L. Martin, K. Morokuma, O. Farkas, 
 J. B. Foresman, and D. J. Fox, Gaussian, Inc., Wallingford CT, 2019.
 
 ************************************************
 Gaussian 16:  Fujitsu-Arm-G16RevC.01  3-Jul-2019
                   27-Sep-2023 
 ************************************************
 %mem=24GB
 %nproc=42
 Will use up to   42 processors via shared memory.
 -------------------------------------------------------------
 #P TEST b3lyp/6-311G** EmpiricalDispersion=GD3 counterpoise=2
 -------------------------------------------------------------
 1/38=1,62=2,172=1/1;
 2/12=2,17=6,18=5,40=1/2;
 1/38=1,53=2,62=2,63=1/22;
 3/5=4,6=6,7=101,11=2,25=1,30=1,74=-5,124=31/1,2,3;
 4//1;
 5/5=2,38=5/2;
 6/7=2,8=2,9=2,10=2,28=1/1;
 1/53=2,62=2,63=1/22;
 3/5=7,6=11,7=101,11=2,25=1,30=1,74=-5,82=7,124=31/1,2,3;
 4//1;
 5/5=2,38=5/2;
 6/7=2,8=2,9=2,10=2,28=1/1;
 1/53=2,62=2,63=1/22(-4);
 99/5=1,9=1/99;
 Leave Link    1 at Wed Sep 27 16:57:44 2023, MaxMem=  3221225472 cpu:               5.7 elap:               0.2
 (Enter /home/center/opt/aarch64/apps/gaussian16/c01/g16/l101.exe)
 ----------------------------
 pentacene_A1=0_A2=0_A3=45_t1
 ----------------------------
 Symbolic Z-matrix:
 Charge =  0 Multiplicity = 1 in supermolecule
 Charge =  0 Multiplicity = 1 in fragment      1.
 Charge =  0 Multiplicity = 1 in fragment      2.
 C(Fragment=1)        -0.50395   0.52395  -3.66128 
 C(Fragment=1)         0.52395  -0.50395  -3.66128 
 C(Fragment=1)        -0.98612   1.00612  -4.92359 
 C(Fragment=1)         1.00613  -0.98613  -4.92359 
 C(Fragment=1)        -0.49632   0.51632  -6.09636 
 C(Fragment=1)         0.51632  -0.49632  -6.09636 
 C(Fragment=1)        -0.98447   1.00447  -2.45332 
 C(Fragment=1)        -0.50449   0.52449  -1.21403 
 C(Fragment=1)         1.00447  -0.98447  -2.45332 
 C(Fragment=1)         0.52449  -0.50449  -1.21403 
 H(Fragment=1)        -1.75336   1.77336  -4.92326 
 H(Fragment=1)        -1.75219   1.77219  -2.45393 
 H(Fragment=1)         1.77219  -1.75219  -2.45393 
 H(Fragment=1)         1.77336  -1.75336  -4.92326 
 H(Fragment=1)         0.89056  -0.87056  -7.04253 
 H(Fragment=1)        -0.87056   0.89056  -7.04253 
 C(Fragment=1)        -0.98482   1.00482   0.01 
 C(Fragment=1)        -0.50449   0.52449   1.23403 
 C(Fragment=1)         1.00482  -0.98482   0.01 
 C(Fragment=1)         0.52449  -0.50449   1.23403 
 H(Fragment=1)        -1.75247   1.77247   0.01 
 H(Fragment=1)         1.77247  -1.75247   0.01 
 C(Fragment=1)        -0.98447   1.00447   2.47332 
 C(Fragment=1)        -0.50395   0.52395   3.68128 
 C(Fragment=1)         1.00447  -0.98447   2.47332 
 C(Fragment=1)         0.52395  -0.50395   3.68128 
 H(Fragment=1)        -1.75219   1.77219   2.47393 
 H(Fragment=1)         1.77219  -1.75219   2.47393 
 C(Fragment=1)        -0.98612   1.00612   4.94359 
 C(Fragment=1)        -0.49632   0.51632   6.11636 
 C(Fragment=1)         1.00612  -0.98612   4.94359 
 C(Fragment=1)         0.51632  -0.49632   6.11636 
 H(Fragment=1)        -1.75336   1.77336   4.94326 
 H(Fragment=1)        -0.87056   0.89056   7.06253 
 H(Fragment=1)         0.89056  -0.87056   7.06253 
 H(Fragment=1)         1.77336  -1.75336   4.94326 
 C(Fragment=2)         5.02395   3.77395  -3.66128 
 C(Fragment=2)         3.99605   2.74605  -3.66128 
 C(Fragment=2)         5.50612   4.25612  -4.92359 
 C(Fragment=2)         3.51387   2.26387  -4.92359 
 C(Fragment=2)         5.01632   3.76632  -6.09636 
 C(Fragment=2)         4.00368   2.75368  -6.09636 
 C(Fragment=2)         5.50447   4.25447  -2.45332 
 C(Fragment=2)         5.02449   3.77449  -1.21403 
 C(Fragment=2)         3.51553   2.26553  -2.45332 
 C(Fragment=2)         3.99551   2.74551  -1.21403 
 H(Fragment=2)         6.27336   5.02336  -4.92326 
 H(Fragment=2)         6.27219   5.02219  -2.45393 
 H(Fragment=2)         2.74781   1.49781  -2.45393 
 H(Fragment=2)         2.74664   1.49664  -4.92326 
 H(Fragment=2)         3.62944   2.37944  -7.04253 
 H(Fragment=2)         5.39056   4.14056  -7.04253 
 C(Fragment=2)         5.50482   4.25482   0.01 
 C(Fragment=2)         5.02449   3.77449   1.23403 
 C(Fragment=2)         3.51518   2.26518   0.01 
 C(Fragment=2)         3.99551   2.74551   1.23403 
 H(Fragment=2)         6.27247   5.02247   0.01 
 H(Fragment=2)         2.74753   1.49753   0.01 
 C(Fragment=2)         5.50447   4.25447   2.47332 
 C(Fragment=2)         5.02395   3.77395   3.68128 
 C(Fragment=2)         3.51553   2.26553   2.47332 
 C(Fragment=2)         3.99605   2.74605   3.68128 
 H(Fragment=2)         6.27219   5.02219   2.47393 
 H(Fragment=2)         2.74781   1.49781   2.47393 
 C(Fragment=2)         5.50612   4.25612   4.94359 
 C(Fragment=2)         5.01632   3.76632   6.11636 
 C(Fragment=2)         3.51388   2.26388   4.94359 
 C(Fragment=2)         4.00368   2.75368   6.11636 
 H(Fragment=2)         6.27336   5.02336   4.94326 
 H(Fragment=2)         5.39056   4.14056   7.06253 
 H(Fragment=2)         3.62944   2.37944   7.06253 
 H(Fragment=2)         2.74664   1.49664   4.94326 
 
 ITRead=  0  0  0  0  0  0  0  0  0  0  0  0  0  0  0  0  0  0  0  0
 ITRead=  0  0  0  0  0  0  0  0  0  0  0  0  0  0  0  0  0  0  0  0
 ITRead=  0  0  0  0  0  0  0  0  0  0  0  0  0  0  0  0  0  0  0  0
 ITRead=  0  0  0  0  0  0  0  0  0  0  0  0
 MicOpt= -1 -1 -1 -1 -1 -1 -1 -1 -1 -1 -1 -1 -1 -1 -1 -1 -1 -1 -1 -1
 MicOpt= -1 -1 -1 -1 -1 -1 -1 -1 -1 -1 -1 -1 -1 -1 -1 -1 -1 -1 -1 -1
 MicOpt= -1 -1 -1 -1 -1 -1 -1 -1 -1 -1 -1 -1 -1 -1 -1 -1 -1 -1 -1 -1
 MicOpt= -1 -1 -1 -1 -1 -1 -1 -1 -1 -1 -1 -1
 NAtoms=     72 NQM=       72 NQMF=       0 NMMI=      0 NMMIF=      0
                NMic=       0 NMicF=      0.
                    Isotopes and Nuclear Properties:
 (Nuclear quadrupole moments (NQMom) in fm**2, nuclear magnetic moments (NMagM)
  in nuclear magnetons)

  Atom         1           2           3           4           5           6           7           8           9          10
 IAtWgt=          12          12          12          12          12          12          12          12          12          12
 AtmWgt=  12.0000000  12.0000000  12.0000000  12.0000000  12.0000000  12.0000000  12.0000000  12.0000000  12.0000000  12.0000000
 NucSpn=           0           0           0           0           0           0           0           0           0           0
 AtZEff=   0.0000000   0.0000000   0.0000000   0.0000000   0.0000000   0.0000000   0.0000000   0.0000000   0.0000000   0.0000000
 NQMom=    0.0000000   0.0000000   0.0000000   0.0000000   0.0000000   0.0000000   0.0000000   0.0000000   0.0000000   0.0000000
 NMagM=    0.0000000   0.0000000   0.0000000   0.0000000   0.0000000   0.0000000   0.0000000   0.0000000   0.0000000   0.0000000
 AtZNuc=   6.0000000   6.0000000   6.0000000   6.0000000   6.0000000   6.0000000   6.0000000   6.0000000   6.0000000   6.0000000

  Atom        11          12          13          14          15          16          17          18          19          20
 IAtWgt=           1           1           1           1           1           1          12          12          12          12
 AtmWgt=   1.0078250   1.0078250   1.0078250   1.0078250   1.0078250   1.0078250  12.0000000  12.0000000  12.0000000  12.0000000
 NucSpn=           1           1           1           1           1           1           0           0           0           0
 AtZEff=   0.0000000   0.0000000   0.0000000   0.0000000   0.0000000   0.0000000   0.0000000   0.0000000   0.0000000   0.0000000
 NQMom=    0.0000000   0.0000000   0.0000000   0.0000000   0.0000000   0.0000000   0.0000000   0.0000000   0.0000000   0.0000000
 NMagM=    2.7928460   2.7928460   2.7928460   2.7928460   2.7928460   2.7928460   0.0000000   0.0000000   0.0000000   0.0000000
 AtZNuc=   1.0000000   1.0000000   1.0000000   1.0000000   1.0000000   1.0000000   6.0000000   6.0000000   6.0000000   6.0000000

  Atom        21          22          23          24          25          26          27          28          29          30
 IAtWgt=           1           1          12          12          12          12           1           1          12          12
 AtmWgt=   1.0078250   1.0078250  12.0000000  12.0000000  12.0000000  12.0000000   1.0078250   1.0078250  12.0000000  12.0000000
 NucSpn=           1           1           0           0           0           0           1           1           0           0
 AtZEff=   0.0000000   0.0000000   0.0000000   0.0000000   0.0000000   0.0000000   0.0000000   0.0000000   0.0000000   0.0000000
 NQMom=    0.0000000   0.0000000   0.0000000   0.0000000   0.0000000   0.0000000   0.0000000   0.0000000   0.0000000   0.0000000
 NMagM=    2.7928460   2.7928460   0.0000000   0.0000000   0.0000000   0.0000000   2.7928460   2.7928460   0.0000000   0.0000000
 AtZNuc=   1.0000000   1.0000000   6.0000000   6.0000000   6.0000000   6.0000000   1.0000000   1.0000000   6.0000000   6.0000000

  Atom        31          32          33          34          35          36          37          38          39          40
 IAtWgt=          12          12           1           1           1           1          12          12          12          12
 AtmWgt=  12.0000000  12.0000000   1.0078250   1.0078250   1.0078250   1.0078250  12.0000000  12.0000000  12.0000000  12.0000000
 NucSpn=           0           0           1           1           1           1           0           0           0           0
 AtZEff=   0.0000000   0.0000000   0.0000000   0.0000000   0.0000000   0.0000000   0.0000000   0.0000000   0.0000000   0.0000000
 NQMom=    0.0000000   0.0000000   0.0000000   0.0000000   0.0000000   0.0000000   0.0000000   0.0000000   0.0000000   0.0000000
 NMagM=    0.0000000   0.0000000   2.7928460   2.7928460   2.7928460   2.7928460   0.0000000   0.0000000   0.0000000   0.0000000
 AtZNuc=   6.0000000   6.0000000   1.0000000   1.0000000   1.0000000   1.0000000   6.0000000   6.0000000   6.0000000   6.0000000

  Atom        41          42          43          44          45          46          47          48          49          50
 IAtWgt=          12          12          12          12          12          12           1           1           1           1
 AtmWgt=  12.0000000  12.0000000  12.0000000  12.0000000  12.0000000  12.0000000   1.0078250   1.0078250   1.0078250   1.0078250
 NucSpn=           0           0           0           0           0           0           1           1           1           1
 AtZEff=   0.0000000   0.0000000   0.0000000   0.0000000   0.0000000   0.0000000   0.0000000   0.0000000   0.0000000   0.0000000
 NQMom=    0.0000000   0.0000000   0.0000000   0.0000000   0.0000000   0.0000000   0.0000000   0.0000000   0.0000000   0.0000000
 NMagM=    0.0000000   0.0000000   0.0000000   0.0000000   0.0000000   0.0000000   2.7928460   2.7928460   2.7928460   2.7928460
 AtZNuc=   6.0000000   6.0000000   6.0000000   6.0000000   6.0000000   6.0000000   1.0000000   1.0000000   1.0000000   1.0000000

  Atom        51          52          53          54          55          56          57          58          59          60
 IAtWgt=           1           1          12          12          12          12           1           1          12          12
 AtmWgt=   1.0078250   1.0078250  12.0000000  12.0000000  12.0000000  12.0000000   1.0078250   1.0078250  12.0000000  12.0000000
 NucSpn=           1           1           0           0           0           0           1           1           0           0
 AtZEff=   0.0000000   0.0000000   0.0000000   0.0000000   0.0000000   0.0000000   0.0000000   0.0000000   0.0000000   0.0000000
 NQMom=    0.0000000   0.0000000   0.0000000   0.0000000   0.0000000   0.0000000   0.0000000   0.0000000   0.0000000   0.0000000
 NMagM=    2.7928460   2.7928460   0.0000000   0.0000000   0.0000000   0.0000000   2.7928460   2.7928460   0.0000000   0.0000000
 AtZNuc=   1.0000000   1.0000000   6.0000000   6.0000000   6.0000000   6.0000000   1.0000000   1.0000000   6.0000000   6.0000000

  Atom        61          62          63          64          65          66          67          68          69          70
 IAtWgt=          12          12           1           1          12          12          12          12           1           1
 AtmWgt=  12.0000000  12.0000000   1.0078250   1.0078250  12.0000000  12.0000000  12.0000000  12.0000000   1.0078250   1.0078250
 NucSpn=           0           0           1           1           0           0           0           0           1           1
 AtZEff=   0.0000000   0.0000000   0.0000000   0.0000000   0.0000000   0.0000000   0.0000000   0.0000000   0.0000000   0.0000000
 NQMom=    0.0000000   0.0000000   0.0000000   0.0000000   0.0000000   0.0000000   0.0000000   0.0000000   0.0000000   0.0000000
 NMagM=    0.0000000   0.0000000   2.7928460   2.7928460   0.0000000   0.0000000   0.0000000   0.0000000   2.7928460   2.7928460
 AtZNuc=   6.0000000   6.0000000   1.0000000   1.0000000   6.0000000   6.0000000   6.0000000   6.0000000   1.0000000   1.0000000

  Atom        71          72
 IAtWgt=           1           1
 AtmWgt=   1.0078250   1.0078250
 NucSpn=           1           1
 AtZEff=   0.0000000   0.0000000
 NQMom=    0.0000000   0.0000000
 NMagM=    2.7928460   2.7928460
 AtZNuc=   1.0000000   1.0000000
 Leave Link  101 at Wed Sep 27 16:57:46 2023, MaxMem=  3221225472 cpu:               2.5 elap:               0.1
 (Enter /home/center/opt/aarch64/apps/gaussian16/c01/g16/l202.exe)
 Stoichiometry    C44H28
 Framework group  CS[SG(C4H4),X(C40H24)]
 Deg. of freedom   109
 Full point group                 CS      NOp   2
 Largest Abelian subgroup         CS      NOp   2
 Largest concise Abelian subgroup CS      NOp   2
                         Standard orientation:                         
 ---------------------------------------------------------------------
 Center     Atomic      Atomic             Coordinates (Angstroms)
 Number     Number       Type             X           Y           Z
 ---------------------------------------------------------------------
      1          6           0        1.168774   -2.740039    3.671276
      2          6           0       -0.284890   -2.740039    3.671276
      3          6           0        1.850675   -2.740039    4.933593
      4          6           0       -0.966792   -2.740039    4.933593
      5          6           0        1.157988   -2.740039    6.106357
      6          6           0       -0.274105   -2.740039    6.106357
      7          6           0        1.848333   -2.740039    2.463318
      8          6           0        1.169538   -2.740039    1.224029
      9          6           0       -0.964449   -2.740039    2.463317
     10          6           0       -0.285655   -2.740039    1.224029
     11          1           0        2.935704   -2.740039    4.933260
     12          1           0        2.934050   -2.740039    2.463929
     13          1           0       -2.050165   -2.740039    2.463929
     14          1           0       -2.051820   -2.740039    4.933260
     15          1           0       -0.803354   -2.740039    7.052528
     16          1           0        1.687237   -2.740039    7.052528
     17          6           0        1.848828   -2.740039    0.000000
     18          6           0        1.169538   -2.740039   -1.224029
     19          6           0       -0.964944   -2.740039    0.000000
     20          6           0       -0.285655   -2.740039   -1.224029
     21          1           0        2.934451   -2.740039    0.000000
     22          1           0       -2.050566   -2.740039    0.000000
     23          6           0        1.848333   -2.740039   -2.463318
     24          6           0        1.168774   -2.740039   -3.671276
     25          6           0       -0.964449   -2.740039   -2.463317
     26          6           0       -0.284890   -2.740039   -3.671276
     27          1           0        2.934050   -2.740039   -2.463929
     28          1           0       -2.050165   -2.740039   -2.463929
     29          6           0        1.850675   -2.740039   -4.933593
     30          6           0        1.157988   -2.740039   -6.106357
     31          6           0       -0.966792   -2.740039   -4.933593
     32          6           0       -0.274105   -2.740039   -6.106357
     33          1           0        2.935704   -2.740039   -4.933260
     34          1           0        1.687237   -2.740039   -7.052528
     35          1           0       -0.803354   -2.740039   -7.052528
     36          1           0       -2.051820   -2.740039   -4.933260
     37          6           0       -0.441942    3.466871    3.671276
     38          6           0       -0.441942    2.013207    3.671276
     39          6           0       -0.441942    4.148772    4.933593
     40          6           0       -0.441942    1.331305    4.933593
     41          6           0       -0.441942    3.456085    6.106357
     42          6           0       -0.441942    2.023992    6.106357
     43          6           0       -0.441942    4.146430    2.463318
     44          6           0       -0.441942    3.467635    1.224029
     45          6           0       -0.441942    1.333648    2.463317
     46          6           0       -0.441942    2.012442    1.224029
     47          1           0       -0.441942    5.233801    4.933260
     48          1           0       -0.441942    5.232147    2.463929
     49          1           0       -0.441942    0.247932    2.463929
     50          1           0       -0.441942    0.246277    4.933260
     51          1           0       -0.441942    1.494743    7.052528
     52          1           0       -0.441942    3.985334    7.052528
     53          6           0       -0.441942    4.146925    0.000000
     54          6           0       -0.441942    3.467635   -1.224029
     55          6           0       -0.441942    1.333153    0.000000
     56          6           0       -0.441942    2.012442   -1.224029
     57          1           0       -0.441942    5.232548    0.000000
     58          1           0       -0.441942    0.247531    0.000000
     59          6           0       -0.441942    4.146430   -2.463318
     60          6           0       -0.441942    3.466871   -3.671276
     61          6           0       -0.441942    1.333648   -2.463317
     62          6           0       -0.441942    2.013207   -3.671276
     63          1           0       -0.441942    5.232147   -2.463929
     64          1           0       -0.441942    0.247932   -2.463929
     65          6           0       -0.441942    4.148772   -4.933593
     66          6           0       -0.441942    3.456085   -6.106357
     67          6           0       -0.441942    1.331305   -4.933593
     68          6           0       -0.441942    2.023992   -6.106357
     69          1           0       -0.441942    5.233801   -4.933260
     70          1           0       -0.441942    3.985334   -7.052528
     71          1           0       -0.441942    1.494743   -7.052528
     72          1           0       -0.441942    0.246277   -4.933260
 ---------------------------------------------------------------------
 Rotational constants (GHZ):           0.1001038           0.0563744           0.0381438
 Leave Link  202 at Wed Sep 27 16:57:48 2023, MaxMem=  3221225472 cpu:               0.4 elap:               0.0
 (Enter /home/center/opt/aarch64/apps/gaussian16/c01/g16/l122.exe)
 Counterpoise: doing full-system calculation.
 Leave Link  122 at Wed Sep 27 16:57:50 2023, MaxMem=  3221225472 cpu:               0.2 elap:               0.0
 (Enter /home/center/opt/aarch64/apps/gaussian16/c01/g16/l301.exe)
 Standard basis: 6-311G(d,p) (5D, 7F)
 Ernie: Thresh=  0.10000D-02 Tol=  0.10000D-05 Strict=F.
 There are   528 symmetry adapted cartesian basis functions of A'  symmetry.
 There are   476 symmetry adapted cartesian basis functions of A"  symmetry.
 There are   504 symmetry adapted basis functions of A'  symmetry.
 There are   456 symmetry adapted basis functions of A"  symmetry.
   960 basis functions,  1632 primitive gaussians,  1004 cartesian basis functions
   146 alpha electrons      146 beta electrons
       nuclear repulsion energy      4579.0326240309 Hartrees.
 IExCor=  402 DFT=T Ex+Corr=B3LYP ExCW=0 ScaHFX=  0.200000
 ScaDFX=  0.800000  0.720000  1.000000  0.810000 ScalE2=  1.000000  1.000000
 IRadAn=      5 IRanWt=     -1 IRanGd=            0 ICorTp=0 IEmpDi=131
 NAtoms=   72 NActive=   72 NUniq=   40 SFac= 3.24D+00 NAtFMM=   60 NAOKFM=T Big=F
 Integral buffers will be    131072 words long.
 Raffenetti 2 integral format.
 Two-electron integral symmetry is turned on.
 R6Disp:  Grimme-D3 Dispersion energy=       -0.0767810611 Hartrees.
 Nuclear repulsion after empirical dispersion term =     4578.9558429698 Hartrees.
 Leave Link  301 at Wed Sep 27 16:57:53 2023, MaxMem=  3221225472 cpu:               2.0 elap:               0.1
 (Enter /home/center/opt/aarch64/apps/gaussian16/c01/g16/l302.exe)
 NPDir=0 NMtPBC=     1 NCelOv=     1 NCel=       1 NClECP=     1 NCelD=      1
         NCelK=      1 NCelE2=     1 NClLst=     1 CellRange=     0.0.
 One-electron integrals computed using PRISM.
 One-electron integral symmetry used in STVInt
 NBasis=   960 RedAO= T EigKep=  3.82D-05  NBF=   504   456
 NBsUse=   960 1.00D-06 EigRej= -1.00D+00 NBFU=   504   456
 Precomputing XC quadrature grid using
 IXCGrd= 4 IRadAn=           5 IRanWt=          -1 IRanGd=           0 AccXCQ= 0.00D+00.
 Generated NRdTot=       0 NPtTot=           0 NUsed=           0 NTot=          32
 NSgBfM=   991   991   991   991   991 MxSgAt=    72 MxSgA2=    72.
 Leave Link  302 at Wed Sep 27 16:57:57 2023, MaxMem=  3221225472 cpu:              67.2 elap:               2.0
 (Enter /home/center/opt/aarch64/apps/gaussian16/c01/g16/l303.exe)
 DipDrv:  MaxL=1.
 Leave Link  303 at Wed Sep 27 16:58:00 2023, MaxMem=  3221225472 cpu:              13.7 elap:               0.5
 (Enter /home/center/opt/aarch64/apps/gaussian16/c01/g16/l401.exe)
 ExpMin= 1.03D-01 ExpMax= 4.56D+03 ExpMxC= 6.82D+02 IAcc=3 IRadAn=         5 AccDes= 0.00D+00
 Harris functional with IExCor=  402 and IRadAn=       5 diagonalized for initial guess.
 HarFok:  IExCor=  402 AccDes= 0.00D+00 IRadAn=         5 IDoV= 1 UseB2=F ITyADJ=14
 ICtDFT=  3500011 ScaDFX=  1.000000  1.000000  1.000000  1.000000
 FoFCou: FMM=F IPFlag=           0 FMFlag=      100000 FMFlg1=        2000
         NFxFlg=           0 DoJE=T BraDBF=F KetDBF=T FulRan=T
         wScrn=  0.000000 ICntrl=       500 IOpCl=  0 I1Cent=   200000004 NGrid=           0
         NMat0=    1 NMatS0=      1 NMatT0=    0 NMatD0=    1 NMtDS0=    0 NMtDT0=    0
 Petite list used in FoFCou.
 Harris En= -1694.13867132211    
 JPrj=0 DoOrth=F DoCkMO=F.
 Initial guess orbital symmetries:
       Occupied  (A") (A') (A") (A') (A') (A") (A') (A") (A") (A')
                 (A") (A') (A") (A') (A") (A') (A") (A') (A') (A")
                 (A") (A') (A") (A') (A') (A') (A') (A') (A") (A')
                 (A") (A') (A") (A') (A") (A') (A") (A') (A") (A')
                 (A') (A") (A') (A") (A') (A') (A") (A") (A') (A')
                 (A") (A") (A') (A') (A') (A') (A") (A") (A') (A')
                 (A") (A") (A") (A") (A') (A') (A') (A') (A") (A")
                 (A") (A") (A') (A') (A") (A") (A') (A') (A') (A')
                 (A') (A') (A") (A") (A") (A") (A") (A") (A') (A')
                 (A') (A') (A") (A") (A') (A') (A') (A') (A") (A")
                 (A') (A') (A") (A") (A") (A") (A') (A') (A') (A')
                 (A") (A") (A') (A') (A") (A") (A') (A') (A") (A")
                 (A") (A") (A') (A') (A') (A') (A") (A") (A') (A')
                 (A") (A") (A') (A') (A") (A") (A') (A') (A') (A')
                 (A") (A") (A") (A") (A') (A')
       Virtual   (A') (A') (A") (A") (A") (A") (A') (A') (A') (A')
                 (A") (A") (A') (A') (A") (A") (A') (A") (A') (A')
                 (A') (A') (A") (A') (A') (A") (A") (A') (A") (A")
                 (A') (A") (A') (A") (A') (A') (A") (A") (A") (A')
                 (A') (A") (A') (A') (A") (A') (A") (A') (A') (A')
                 (A') (A') (A") (A") (A') (A') (A") (A") (A') (A')
                 (A") (A") (A") (A") (A') (A') (A") (A') (A") (A")
                 (A') (A") (A') (A') (A") (A') (A") (A") (A') (A")
                 (A') (A') (A') (A') (A") (A') (A') (A") (A") (A')
                 (A') (A") (A") (A") (A') (A') (A") (A") (A') (A")
                 (A') (A") (A') (A") (A") (A') (A") (A') (A') (A')
                 (A') (A') (A") (A') (A') (A") (A") (A') (A') (A")
                 (A') (A") (A") (A') (A") (A') (A") (A") (A') (A')
                 (A") (A") (A') (A") (A") (A') (A") (A') (A") (A')
                 (A") (A') (A') (A') (A') (A") (A') (A') (A') (A")
                 (A') (A") (A') (A") (A') (A") (A") (A') (A') (A')
                 (A") (A") (A") (A') (A") (A') (A") (A') (A") (A')
                 (A') (A") (A") (A') (A') (A") (A') (A") (A') (A")
                 (A') (A") (A") (A') (A') (A") (A') (A') (A') (A")
                 (A') (A") (A') (A") (A') (A") (A') (A') (A") (A")
                 (A") (A') (A') (A') (A") (A') (A") (A') (A") (A')
                 (A") (A') (A") (A') (A') (A") (A") (A") (A") (A')
                 (A") (A') (A") (A') (A") (A') (A") (A') (A') (A")
                 (A') (A') (A') (A') (A") (A") (A') (A") (A") (A')
                 (A") (A') (A") (A') (A') (A") (A') (A") (A') (A")
                 (A") (A") (A') (A") (A') (A') (A') (A") (A') (A")
                 (A') (A') (A") (A") (A') (A") (A") (A') (A") (A')
                 (A") (A') (A") (A") (A') (A') (A") (A') (A") (A')
                 (A") (A") (A') (A') (A') (A') (A") (A') (A") (A")
                 (A') (A') (A") (A') (A") (A") (A") (A') (A") (A")
                 (A") (A') (A') (A') (A') (A') (A") (A') (A') (A")
                 (A") (A") (A') (A") (A") (A") (A') (A') (A') (A')
                 (A") (A') (A") (A') (A') (A') (A") (A") (A") (A')
                 (A") (A") (A') (A") (A') (A') (A") (A') (A") (A')
                 (A') (A") (A") (A') (A") (A') (A") (A') (A") (A')
                 (A') (A') (A") (A') (A") (A') (A') (A") (A') (A")
                 (A') (A') (A') (A") (A') (A") (A") (A") (A") (A")
                 (A") (A') (A") (A') (A") (A") (A') (A') (A') (A')
                 (A") (A") (A') (A') (A') (A') (A') (A") (A') (A")
                 (A") (A') (A') (A') (A") (A') (A") (A") (A") (A')
                 (A") (A') (A") (A') (A") (A') (A') (A") (A") (A')
                 (A') (A") (A') (A') (A') (A") (A") (A') (A") (A')
                 (A') (A') (A') (A") (A") (A') (A") (A') (A") (A')
                 (A") (A") (A") (A') (A") (A') (A") (A') (A") (A")
                 (A") (A') (A') (A") (A') (A") (A') (A') (A") (A")
                 (A') (A') (A') (A") (A') (A') (A") (A") (A') (A")
                 (A") (A') (A") (A') (A') (A") (A") (A') (A") (A")
                 (A') (A') (A") (A') (A") (A") (A') (A') (A") (A')
                 (A") (A') (A') (A') (A") (A') (A") (A") (A") (A')
                 (A") (A') (A") (A") (A") (A") (A") (A') (A") (A')
                 (A') (A") (A') (A') (A") (A') (A') (A') (A") (A')
                 (A") (A') (A') (A') (A") (A") (A") (A") (A') (A')
                 (A") (A') (A") (A') (A") (A") (A') (A') (A") (A')
                 (A") (A') (A') (A') (A") (A") (A') (A") (A") (A')
                 (A") (A") (A') (A') (A') (A") (A") (A") (A') (A")
                 (A') (A") (A') (A") (A') (A") (A") (A') (A') (A')
                 (A") (A') (A") (A') (A') (A") (A") (A') (A') (A")
                 (A") (A') (A") (A") (A') (A') (A') (A") (A') (A")
                 (A') (A') (A') (A") (A') (A") (A') (A") (A') (A")
                 (A') (A') (A") (A') (A') (A") (A') (A") (A") (A')
                 (A') (A") (A") (A') (A") (A') (A") (A") (A') (A')
                 (A") (A') (A") (A') (A') (A") (A') (A") (A') (A")
                 (A') (A") (A") (A') (A") (A') (A") (A') (A") (A')
                 (A') (A') (A") (A') (A') (A") (A') (A") (A") (A')
                 (A') (A") (A') (A") (A") (A") (A") (A') (A") (A')
                 (A') (A") (A') (A') (A') (A') (A") (A') (A") (A')
                 (A') (A") (A") (A') (A") (A") (A') (A') (A') (A")
                 (A') (A") (A") (A') (A") (A') (A") (A") (A') (A')
                 (A") (A') (A') (A") (A') (A") (A') (A") (A") (A")
                 (A') (A') (A") (A') (A') (A') (A") (A") (A") (A')
                 (A') (A") (A') (A") (A') (A") (A') (A") (A') (A")
                 (A") (A") (A') (A") (A') (A') (A') (A') (A") (A")
                 (A') (A') (A") (A") (A') (A") (A') (A') (A') (A")
                 (A') (A") (A") (A') (A") (A') (A") (A') (A') (A")
                 (A') (A") (A') (A') (A") (A") (A') (A') (A') (A')
                 (A") (A') (A") (A') (A") (A") (A') (A') (A") (A")
                 (A") (A") (A') (A') (A") (A") (A') (A") (A') (A")
                 (A') (A') (A") (A") (A') (A') (A') (A') (A") (A")
                 (A") (A") (A') (A') (A") (A") (A') (A') (A') (A')
                 (A") (A") (A") (A") (A') (A') (A') (A') (A") (A")
                 (A') (A') (A") (A") (A') (A') (A") (A') (A") (A')
                 (A') (A") (A') (A")
 The electronic state of the initial guess is 1-A'.
 Leave Link  401 at Wed Sep 27 16:58:05 2023, MaxMem=  3221225472 cpu:             105.9 elap:               2.7
 (Enter /home/center/opt/aarch64/apps/gaussian16/c01/g16/l502.exe)
 Integral symmetry usage will be decided dynamically.
 Closed shell SCF:
 Using DIIS extrapolation, IDIIS=  1040.
 NGot=  3221225472 LenX=  3219153746 LenY=  3218144726
 Requested convergence on RMS density matrix=1.00D-08 within 128 cycles.
 Requested convergence on MAX density matrix=1.00D-06.
 Requested convergence on             energy=1.00D-06.
 No special actions if energy rises.
 Fock matrices will be formed incrementally for  20 cycles.
 Integral accuracy reduced to 1.0D-05 until final iterations.

 Cycle   1  Pass 0  IDiag  1:
 FoFJK:  IHMeth= 1 ICntrl=       0 DoSepK=F KAlg= 0 I1Cent=           0 FoldK=F
 IRaf= 550000000 NMat=       1 IRICut=       1 DoRegI=T DoRafI=F ISym2E= 1 IDoP0=0 IntGTp=1.
 FoFCou: FMM=F IPFlag=           0 FMFlag=      100000 FMFlg1=        2000
         NFxFlg=           0 DoJE=F BraDBF=F KetDBF=F FulRan=T
         wScrn=  0.000000 ICntrl=         0 IOpCl=  0 I1Cent=           0 NGrid=           0
         NMat0=    1 NMatS0=      1 NMatT0=    0 NMatD0=    1 NMtDS0=    0 NMtDT0=    0
 Petite list used in FoFCou.
 E= -1693.16763480004    
 DIIS: error= 4.47D-02 at cycle   1 NSaved=   1.
 NSaved= 1 IEnMin= 1 EnMin= -1693.16763480004     IErMin= 1 ErrMin= 4.47D-02
 ErrMax= 4.47D-02  0.00D+00 EMaxC= 1.00D-01 BMatC= 9.01D-01 BMatP= 9.01D-01
 IDIUse=3 WtCom= 5.53D-01 WtEn= 4.47D-01
 Coeff-Com:  0.100D+01
 Coeff-En:   0.100D+01
 Coeff:      0.100D+01
 Gap=     0.067 Goal=   None    Shift=    0.000
 GapD=    0.067 DampG=0.500 DampE=0.500 DampFc=0.2500 IDamp=-1.
 Damping current iteration by 2.50D-01
 RMSDP=1.71D-03 MaxDP=8.40D-02              OVMax= 1.56D-01

 Cycle   2  Pass 0  IDiag  1:
 RMSU=  4.14D-04    CP:  9.82D-01
 E= -1693.47797570292     Delta-E=       -0.310340902878 Rises=F Damp=T
 DIIS: error= 2.59D-02 at cycle   2 NSaved=   2.
 NSaved= 2 IEnMin= 2 EnMin= -1693.47797570292     IErMin= 2 ErrMin= 2.59D-02
 ErrMax= 2.59D-02  0.00D+00 EMaxC= 1.00D-01 BMatC= 2.99D-01 BMatP= 9.01D-01
 IDIUse=3 WtCom= 7.41D-01 WtEn= 2.59D-01
 Coeff-Com: -0.121D+01 0.221D+01
 Coeff-En:   0.000D+00 0.100D+01
 Coeff:     -0.896D+00 0.190D+01
 Gap=     0.066 Goal=   None    Shift=    0.000
 RMSDP=6.91D-04 MaxDP=3.33D-02 DE=-3.10D-01 OVMax= 8.69D-02

 Cycle   3  Pass 0  IDiag  1:
 RMSU=  4.38D-04    CP:  9.56D-01  2.23D+00
 E= -1694.04591051540     Delta-E=       -0.567934812481 Rises=F Damp=F
 DIIS: error= 4.71D-03 at cycle   3 NSaved=   3.
 NSaved= 3 IEnMin= 3 EnMin= -1694.04591051540     IErMin= 3 ErrMin= 4.71D-03
 ErrMax= 4.71D-03  0.00D+00 EMaxC= 1.00D-01 BMatC= 1.13D-02 BMatP= 2.99D-01
 IDIUse=3 WtCom= 9.53D-01 WtEn= 4.71D-02
 Coeff-Com: -0.247D+00 0.509D+00 0.738D+00
 Coeff-En:   0.000D+00 0.000D+00 0.100D+01
 Coeff:     -0.235D+00 0.485D+00 0.750D+00
 Gap=     0.069 Goal=   None    Shift=    0.000
 RMSDP=2.33D-04 MaxDP=1.30D-02 DE=-5.68D-01 OVMax= 9.38D-02

 Cycle   4  Pass 0  IDiag  1:
 RMSU=  1.99D-04    CP:  9.58D-01  2.13D+00  7.43D-01
 E= -1694.04142992827     Delta-E=        0.004480587131 Rises=F Damp=F
 DIIS: error= 7.05D-03 at cycle   4 NSaved=   4.
 NSaved= 4 IEnMin= 3 EnMin= -1694.04591051540     IErMin= 3 ErrMin= 4.71D-03
 ErrMax= 7.05D-03  0.00D+00 EMaxC= 1.00D-01 BMatC= 1.35D-02 BMatP= 1.13D-02
 IDIUse=3 WtCom= 1.06D-01 WtEn= 8.94D-01
 Coeff-Com: -0.396D-01 0.109D+00 0.527D+00 0.403D+00
 Coeff-En:   0.000D+00 0.000D+00 0.566D+00 0.434D+00
 Coeff:     -0.422D-02 0.117D-01 0.562D+00 0.430D+00
 Gap=     0.066 Goal=   None    Shift=    0.000
 RMSDP=1.42D-04 MaxDP=9.05D-03 DE= 4.48D-03 OVMax= 7.75D-02

 Cycle   5  Pass 0  IDiag  1:
 RMSU=  7.75D-05    CP:  9.57D-01  2.12D+00  8.13D-01  4.21D-01
 E= -1694.05666890324     Delta-E=       -0.015238974972 Rises=F Damp=F
 DIIS: error= 1.82D-03 at cycle   5 NSaved=   5.
 NSaved= 5 IEnMin= 5 EnMin= -1694.05666890324     IErMin= 5 ErrMin= 1.82D-03
 ErrMax= 1.82D-03  0.00D+00 EMaxC= 1.00D-01 BMatC= 9.93D-04 BMatP= 1.13D-02
 IDIUse=3 WtCom= 9.82D-01 WtEn= 1.82D-02
 Coeff-Com: -0.159D-01 0.340D-01 0.245D+00 0.242D+00 0.495D+00
 Coeff-En:   0.000D+00 0.000D+00 0.000D+00 0.230D-01 0.977D+00
 Coeff:     -0.156D-01 0.333D-01 0.240D+00 0.238D+00 0.504D+00
 Gap=     0.067 Goal=   None    Shift=    0.000
 RMSDP=4.57D-05 MaxDP=2.85D-03 DE=-1.52D-02 OVMax= 2.70D-02

 Cycle   6  Pass 0  IDiag  1:
 RMSU=  2.40D-05    CP:  9.57D-01  2.14D+00  8.22D-01  5.08D-01  5.68D-01
 E= -1694.05754354507     Delta-E=       -0.000874641827 Rises=F Damp=F
 DIIS: error= 9.45D-04 at cycle   6 NSaved=   6.
 NSaved= 6 IEnMin= 6 EnMin= -1694.05754354507     IErMin= 6 ErrMin= 9.45D-04
 ErrMax= 9.45D-04  0.00D+00 EMaxC= 1.00D-01 BMatC= 2.38D-04 BMatP= 9.93D-04
 IDIUse=3 WtCom= 9.91D-01 WtEn= 9.45D-03
 Coeff-Com: -0.539D-02 0.812D-02 0.102D+00 0.116D+00 0.365D+00 0.414D+00
 Coeff-En:   0.000D+00 0.000D+00 0.000D+00 0.000D+00 0.208D+00 0.792D+00
 Coeff:     -0.534D-02 0.805D-02 0.101D+00 0.115D+00 0.363D+00 0.418D+00
 Gap=     0.066 Goal=   None    Shift=    0.000
 RMSDP=1.96D-05 MaxDP=1.37D-03 DE=-8.75D-04 OVMax= 1.13D-02

 Cycle   7  Pass 0  IDiag  1:
 RMSU=  8.39D-06    CP:  9.57D-01  2.14D+00  8.25D-01  4.90D-01  6.38D-01
                    CP:  3.15D-01
 E= -1694.05781313510     Delta-E=       -0.000269590025 Rises=F Damp=F
 DIIS: error= 3.05D-04 at cycle   7 NSaved=   7.
 NSaved= 7 IEnMin= 7 EnMin= -1694.05781313510     IErMin= 7 ErrMin= 3.05D-04
 ErrMax= 3.05D-04  0.00D+00 EMaxC= 1.00D-01 BMatC= 1.92D-05 BMatP= 2.38D-04
 IDIUse=3 WtCom= 9.97D-01 WtEn= 3.05D-03
 Coeff-Com: -0.187D-02 0.218D-02 0.541D-01 0.627D-01 0.214D+00 0.288D+00
 Coeff-Com:  0.381D+00
 Coeff-En:   0.000D+00 0.000D+00 0.000D+00 0.000D+00 0.000D+00 0.311D-01
 Coeff-En:   0.969D+00
 Coeff:     -0.187D-02 0.217D-02 0.539D-01 0.625D-01 0.213D+00 0.287D+00
 Coeff:      0.383D+00
 Gap=     0.067 Goal=   None    Shift=    0.000
 RMSDP=5.36D-06 MaxDP=2.95D-04 DE=-2.70D-04 OVMax= 2.30D-03

 Initial convergence to 1.0D-05 achieved.  Increase integral accuracy.
 Cycle   8  Pass 1  IDiag  1:
 E= -1694.05745565446     Delta-E=        0.000357480637 Rises=F Damp=F
 DIIS: error= 8.02D-04 at cycle   1 NSaved=   1.
 NSaved= 1 IEnMin= 1 EnMin= -1694.05745565446     IErMin= 1 ErrMin= 8.02D-04
 ErrMax= 8.02D-04  0.00D+00 EMaxC= 1.00D-01 BMatC= 4.91D-05 BMatP= 4.91D-05
 IDIUse=3 WtCom= 9.92D-01 WtEn= 8.02D-03
 Coeff-Com:  0.100D+01
 Coeff-En:   0.100D+01
 Coeff:      0.100D+01
 Gap=     0.067 Goal=   None    Shift=    0.000
 RMSDP=5.36D-06 MaxDP=2.95D-04 DE= 3.57D-04 OVMax= 1.39D-03

 Cycle   9  Pass 1  IDiag  1:
 RMSU=  3.02D-04    CP:  9.99D-01
 E= -1694.05750224704     Delta-E=       -0.000046592584 Rises=F Damp=F
 DIIS: error= 1.02D-04 at cycle   2 NSaved=   2.
 NSaved= 2 IEnMin= 2 EnMin= -1694.05750224704     IErMin= 2 ErrMin= 1.02D-04
 ErrMax= 1.02D-04  0.00D+00 EMaxC= 1.00D-01 BMatC= 2.45D-06 BMatP= 4.91D-05
 IDIUse=3 WtCom= 9.99D-01 WtEn= 1.02D-03
 Coeff-Com:  0.598D-01 0.940D+00
 Coeff-En:   0.000D+00 0.100D+01
 Coeff:      0.597D-01 0.940D+00
 Gap=     0.067 Goal=   None    Shift=    0.000
 RMSDP=6.21D-06 MaxDP=4.08D-04 DE=-4.66D-05 OVMax= 3.31D-03

 Cycle  10  Pass 1  IDiag  1:
 RMSU=  5.34D-06    CP:  9.99D-01  1.01D+00
 E= -1694.05749016366     Delta-E=        0.000012083380 Rises=F Damp=F
 DIIS: error= 2.78D-04 at cycle   3 NSaved=   3.
 NSaved= 3 IEnMin= 2 EnMin= -1694.05750224704     IErMin= 2 ErrMin= 1.02D-04
 ErrMax= 2.78D-04  0.00D+00 EMaxC= 1.00D-01 BMatC= 1.22D-05 BMatP= 2.45D-06
 IDIUse=3 WtCom= 3.75D-01 WtEn= 6.25D-01
 Coeff-Com: -0.268D-02 0.695D+00 0.308D+00
 Coeff-En:   0.000D+00 0.778D+00 0.222D+00
 Coeff:     -0.100D-02 0.747D+00 0.254D+00
 Gap=     0.067 Goal=   None    Shift=    0.000
 RMSDP=3.31D-06 MaxDP=2.55D-04 DE= 1.21D-05 OVMax= 2.28D-03

 Cycle  11  Pass 1  IDiag  1:
 RMSU=  9.30D-07    CP:  9.99D-01  1.01D+00  4.05D-01
 E= -1694.05750460480     Delta-E=       -0.000014441131 Rises=F Damp=F
 DIIS: error= 3.80D-05 at cycle   4 NSaved=   4.
 NSaved= 4 IEnMin= 4 EnMin= -1694.05750460480     IErMin= 4 ErrMin= 3.80D-05
 ErrMax= 3.80D-05  0.00D+00 EMaxC= 1.00D-01 BMatC= 4.35D-07 BMatP= 2.45D-06
 IDIUse=1 WtCom= 1.00D+00 WtEn= 0.00D+00
 Coeff-Com: -0.384D-02 0.453D+00 0.139D+00 0.412D+00
 Coeff:     -0.384D-02 0.453D+00 0.139D+00 0.412D+00
 Gap=     0.067 Goal=   None    Shift=    0.000
 RMSDP=6.51D-07 MaxDP=3.15D-05 DE=-1.44D-05 OVMax= 1.59D-04

 Cycle  12  Pass 1  IDiag  1:
 RMSU=  3.77D-07    CP:  9.99D-01  1.01D+00  3.16D-01  7.53D-01
 E= -1694.05750505038     Delta-E=       -0.000000445588 Rises=F Damp=F
 DIIS: error= 5.23D-06 at cycle   5 NSaved=   5.
 NSaved= 5 IEnMin= 5 EnMin= -1694.05750505038     IErMin= 5 ErrMin= 5.23D-06
 ErrMax= 5.23D-06  0.00D+00 EMaxC= 1.00D-01 BMatC= 4.41D-09 BMatP= 4.35D-07
 IDIUse=1 WtCom= 1.00D+00 WtEn= 0.00D+00
 Coeff-Com: -0.230D-02 0.263D+00 0.794D-01 0.253D+00 0.407D+00
 Coeff:     -0.230D-02 0.263D+00 0.794D-01 0.253D+00 0.407D+00
 Gap=     0.067 Goal=   None    Shift=    0.000
 RMSDP=9.88D-08 MaxDP=4.29D-06 DE=-4.46D-07 OVMax= 3.91D-05

 Cycle  13  Pass 1  IDiag  1:
 RMSU=  9.03D-08    CP:  9.99D-01  1.01D+00  3.19D-01  7.65D-01  9.06D-01
 E= -1694.05750505553     Delta-E=       -0.000000005143 Rises=F Damp=F
 DIIS: error= 1.55D-06 at cycle   6 NSaved=   6.
 NSaved= 6 IEnMin= 6 EnMin= -1694.05750505553     IErMin= 6 ErrMin= 1.55D-06
 ErrMax= 1.55D-06  0.00D+00 EMaxC= 1.00D-01 BMatC= 6.27D-10 BMatP= 4.41D-09
 IDIUse=1 WtCom= 1.00D+00 WtEn= 0.00D+00
 Coeff-Com: -0.858D-03 0.951D-01 0.286D-01 0.952D-01 0.273D+00 0.509D+00
 Coeff:     -0.858D-03 0.951D-01 0.286D-01 0.952D-01 0.273D+00 0.509D+00
 Gap=     0.067 Goal=   None    Shift=    0.000
 RMSDP=2.98D-08 MaxDP=2.01D-06 DE=-5.14D-09 OVMax= 1.75D-05

 Cycle  14  Pass 1  IDiag  1:
 RMSU=  2.12D-08    CP:  9.99D-01  1.01D+00  3.20D-01  7.60D-01  9.35D-01
                    CP:  8.31D-01
 E= -1694.05750505619     Delta-E=       -0.000000000668 Rises=F Damp=F
 DIIS: error= 6.05D-07 at cycle   7 NSaved=   7.
 NSaved= 7 IEnMin= 7 EnMin= -1694.05750505619     IErMin= 7 ErrMin= 6.05D-07
 ErrMax= 6.05D-07  0.00D+00 EMaxC= 1.00D-01 BMatC= 4.61D-11 BMatP= 6.27D-10
 IDIUse=1 WtCom= 1.00D+00 WtEn= 0.00D+00
 Coeff-Com: -0.326D-03 0.356D-01 0.104D-01 0.372D-01 0.127D+00 0.287D+00
 Coeff-Com:  0.503D+00
 Coeff:     -0.326D-03 0.356D-01 0.104D-01 0.372D-01 0.127D+00 0.287D+00
 Coeff:      0.503D+00
 Gap=     0.067 Goal=   None    Shift=    0.000
 RMSDP=1.26D-08 MaxDP=1.07D-06 DE=-6.68D-10 OVMax= 9.25D-06

 Cycle  15  Pass 1  IDiag  1:
 RMSU=  9.31D-09    CP:  9.99D-01  1.01D+00  3.20D-01  7.62D-01  9.35D-01
                    CP:  8.50D-01  6.19D-01
 E= -1694.05750505621     Delta-E=       -0.000000000016 Rises=F Damp=F
 DIIS: error= 3.68D-07 at cycle   8 NSaved=   8.
 NSaved= 8 IEnMin= 8 EnMin= -1694.05750505621     IErMin= 8 ErrMin= 3.68D-07
 ErrMax= 3.68D-07  0.00D+00 EMaxC= 1.00D-01 BMatC= 2.51D-11 BMatP= 4.61D-11
 IDIUse=1 WtCom= 1.00D+00 WtEn= 0.00D+00
 Coeff-Com: -0.501D-05 0.887D-05-0.439D-03 0.196D-02 0.233D-01 0.848D-01
 Coeff-Com:  0.424D+00 0.466D+00
 Coeff:     -0.501D-05 0.887D-05-0.439D-03 0.196D-02 0.233D-01 0.848D-01
 Coeff:      0.424D+00 0.466D+00
 Gap=     0.067 Goal=   None    Shift=    0.000
 RMSDP=6.08D-09 MaxDP=4.27D-07 DE=-1.64D-11 OVMax= 3.97D-06

 SCF Done:  E(RB3LYP) =  -1694.05750506     A.U. after   15 cycles
            NFock= 15  Conv=0.61D-08     -V/T= 2.0044
 KE= 1.686678897286D+03 PE=-1.308837307627D+04 EE= 5.128680830958D+03
 Leave Link  502 at Wed Sep 27 16:59:49 2023, MaxMem=  3221225472 cpu:            3676.6 elap:             102.0
 (Enter /home/center/opt/aarch64/apps/gaussian16/c01/g16/l601.exe)
 Copying SCF densities to generalized density rwf, IOpCl= 0 IROHF=0.

 **********************************************************************

            Population analysis using the SCF Density.

 **********************************************************************

 Orbital symmetries:
       Occupied  (A") (A') (A') (A") (A") (A') (A") (A') (A') (A')
                 (A") (A') (A") (A') (A") (A') (A") (A') (A") (A')
                 (A") (A') (A") (A') (A") (A') (A') (A") (A") (A')
                 (A") (A') (A') (A") (A') (A") (A') (A") (A') (A')
                 (A") (A') (A") (A') (A') (A') (A") (A") (A') (A')
                 (A") (A") (A') (A') (A') (A") (A') (A") (A') (A')
                 (A") (A") (A") (A") (A') (A') (A') (A') (A") (A")
                 (A") (A') (A") (A") (A') (A') (A") (A') (A') (A')
                 (A') (A") (A") (A') (A") (A") (A') (A") (A') (A")
                 (A') (A') (A') (A") (A") (A') (A") (A") (A') (A')
                 (A') (A") (A') (A') (A') (A') (A") (A") (A') (A")
                 (A') (A') (A") (A") (A") (A") (A") (A") (A') (A')
                 (A') (A') (A') (A") (A') (A") (A') (A") (A") (A")
                 (A') (A") (A') (A') (A") (A') (A") (A') (A') (A')
                 (A") (A") (A") (A") (A') (A')
       Virtual   (A') (A') (A") (A") (A") (A") (A') (A') (A') (A")
                 (A') (A') (A") (A') (A") (A') (A') (A') (A") (A")
                 (A') (A') (A") (A") (A') (A") (A') (A') (A") (A")
                 (A") (A') (A") (A') (A') (A") (A") (A') (A") (A')
                 (A') (A') (A") (A') (A") (A') (A") (A') (A") (A')
                 (A") (A') (A') (A') (A') (A') (A') (A") (A") (A')
                 (A") (A") (A") (A") (A') (A') (A") (A") (A") (A')
                 (A') (A') (A") (A") (A') (A') (A") (A') (A") (A")
                 (A') (A') (A') (A') (A') (A') (A") (A") (A') (A")
                 (A") (A") (A') (A') (A') (A') (A") (A") (A") (A')
                 (A") (A') (A") (A') (A') (A") (A') (A") (A") (A")
                 (A') (A') (A") (A') (A') (A") (A") (A') (A') (A")
                 (A') (A") (A') (A') (A') (A') (A') (A') (A") (A")
                 (A') (A") (A") (A') (A") (A') (A") (A') (A') (A')
                 (A") (A') (A") (A') (A") (A') (A") (A") (A") (A')
                 (A") (A') (A") (A') (A") (A') (A') (A") (A') (A")
                 (A") (A') (A') (A') (A") (A") (A') (A") (A") (A')
                 (A") (A') (A') (A") (A') (A') (A') (A') (A") (A")
                 (A") (A') (A") (A') (A') (A") (A') (A") (A") (A')
                 (A") (A') (A") (A") (A') (A") (A') (A') (A") (A')
                 (A') (A") (A') (A") (A') (A') (A") (A') (A") (A')
                 (A") (A') (A") (A') (A") (A') (A") (A') (A") (A")
                 (A') (A") (A') (A") (A") (A') (A') (A') (A") (A')
                 (A") (A') (A") (A') (A') (A") (A') (A") (A") (A')
                 (A') (A") (A') (A") (A') (A") (A') (A") (A") (A')
                 (A") (A') (A') (A") (A') (A") (A') (A") (A") (A')
                 (A') (A") (A') (A") (A') (A") (A') (A') (A") (A')
                 (A") (A") (A") (A') (A') (A") (A') (A") (A") (A')
                 (A") (A') (A') (A') (A") (A") (A") (A') (A') (A")
                 (A') (A") (A') (A") (A') (A") (A') (A') (A") (A')
                 (A") (A") (A") (A') (A") (A") (A') (A') (A') (A')
                 (A") (A') (A") (A') (A') (A") (A") (A') (A") (A")
                 (A') (A") (A') (A') (A') (A") (A') (A") (A") (A')
                 (A") (A") (A') (A") (A') (A') (A") (A") (A') (A')
                 (A") (A') (A') (A') (A") (A") (A') (A') (A") (A')
                 (A") (A") (A') (A") (A') (A') (A') (A') (A') (A")
                 (A') (A") (A') (A") (A') (A") (A") (A") (A") (A')
                 (A") (A") (A') (A") (A') (A") (A") (A') (A") (A')
                 (A') (A') (A") (A') (A") (A') (A') (A") (A') (A')
                 (A') (A') (A") (A") (A') (A') (A") (A") (A") (A')
                 (A') (A") (A") (A') (A") (A') (A') (A") (A') (A")
                 (A') (A') (A") (A") (A') (A') (A") (A') (A') (A")
                 (A') (A') (A") (A') (A") (A') (A") (A') (A") (A')
                 (A") (A") (A") (A') (A') (A") (A") (A') (A") (A')
                 (A") (A') (A") (A') (A") (A") (A') (A") (A') (A')
                 (A") (A') (A") (A') (A') (A") (A") (A') (A") (A')
                 (A") (A") (A') (A') (A") (A') (A") (A') (A') (A')
                 (A") (A") (A') (A") (A') (A") (A") (A") (A') (A')
                 (A") (A') (A') (A") (A') (A') (A") (A") (A') (A")
                 (A") (A") (A') (A") (A") (A") (A") (A") (A') (A')
                 (A') (A") (A') (A') (A") (A') (A') (A') (A") (A")
                 (A') (A') (A') (A") (A') (A") (A') (A") (A') (A")
                 (A") (A") (A") (A') (A') (A') (A") (A') (A") (A")
                 (A') (A") (A') (A') (A") (A") (A') (A") (A') (A')
                 (A") (A") (A') (A') (A') (A") (A") (A") (A') (A")
                 (A') (A") (A") (A') (A") (A') (A') (A") (A') (A')
                 (A") (A') (A") (A') (A") (A') (A") (A') (A") (A')
                 (A") (A') (A') (A') (A") (A') (A') (A") (A') (A')
                 (A") (A") (A") (A') (A') (A") (A') (A") (A") (A')
                 (A') (A") (A") (A") (A") (A') (A') (A') (A') (A")
                 (A") (A') (A') (A") (A') (A") (A') (A') (A") (A')
                 (A") (A') (A') (A") (A') (A') (A") (A') (A') (A")
                 (A") (A') (A") (A') (A") (A') (A') (A") (A") (A")
                 (A") (A") (A') (A') (A') (A') (A') (A") (A') (A')
                 (A") (A") (A") (A') (A") (A') (A") (A") (A') (A')
                 (A") (A') (A') (A") (A') (A') (A") (A') (A") (A')
                 (A") (A') (A") (A') (A") (A") (A') (A') (A') (A")
                 (A') (A") (A") (A') (A") (A') (A") (A") (A') (A')
                 (A') (A') (A") (A") (A') (A") (A') (A") (A") (A")
                 (A') (A') (A") (A') (A') (A') (A") (A") (A") (A')
                 (A') (A') (A") (A") (A') (A") (A') (A") (A') (A")
                 (A") (A') (A") (A") (A') (A') (A') (A") (A') (A")
                 (A') (A') (A") (A') (A") (A') (A') (A") (A') (A")
                 (A') (A") (A") (A') (A") (A') (A') (A") (A") (A')
                 (A') (A") (A') (A") (A') (A') (A") (A') (A') (A")
                 (A') (A') (A") (A') (A") (A") (A') (A') (A") (A")
                 (A") (A') (A") (A") (A') (A") (A') (A") (A') (A")
                 (A') (A') (A") (A") (A') (A') (A') (A') (A") (A")
                 (A") (A") (A') (A') (A") (A') (A") (A') (A') (A')
                 (A") (A") (A") (A") (A') (A') (A') (A") (A') (A")
                 (A') (A") (A') (A') (A") (A") (A') (A') (A") (A')
                 (A') (A") (A') (A")
 The electronic state is 1-A'.
 Alpha  occ. eigenvalues --  -10.19579 -10.19579 -10.19519 -10.19518 -10.19482
 Alpha  occ. eigenvalues --  -10.19482 -10.19406 -10.19406 -10.18590 -10.18566
 Alpha  occ. eigenvalues --  -10.18530 -10.18529 -10.18525 -10.18525 -10.18459
 Alpha  occ. eigenvalues --  -10.18459 -10.18396 -10.18396 -10.18384 -10.18383
 Alpha  occ. eigenvalues --  -10.18307 -10.18307 -10.18126 -10.18126 -10.18076
 Alpha  occ. eigenvalues --  -10.18076 -10.18039 -10.18038 -10.17964 -10.17964
 Alpha  occ. eigenvalues --  -10.17192 -10.17192 -10.17134 -10.17126 -10.17125
 Alpha  occ. eigenvalues --  -10.17121 -10.17121 -10.17041 -10.17041 -10.17036
 Alpha  occ. eigenvalues --  -10.17000 -10.17000 -10.16929 -10.16929  -0.89981
 Alpha  occ. eigenvalues --   -0.88527  -0.88484  -0.87075  -0.86159  -0.84769
 Alpha  occ. eigenvalues --   -0.83019  -0.81640  -0.80428  -0.79121  -0.78987
 Alpha  occ. eigenvalues --   -0.78902  -0.77749  -0.77503  -0.76571  -0.75190
 Alpha  occ. eigenvalues --   -0.74859  -0.73480  -0.73477  -0.72105  -0.69781
 Alpha  occ. eigenvalues --   -0.68393  -0.67938  -0.66563  -0.63316  -0.62944
 Alpha  occ. eigenvalues --   -0.61937  -0.61680  -0.61598  -0.60524  -0.60255
 Alpha  occ. eigenvalues --   -0.59861  -0.59127  -0.58489  -0.58256  -0.56910
 Alpha  occ. eigenvalues --   -0.53284  -0.53130  -0.52852  -0.51930  -0.51761
 Alpha  occ. eigenvalues --   -0.51519  -0.50197  -0.49084  -0.48838  -0.47759
 Alpha  occ. eigenvalues --   -0.47701  -0.46649  -0.46376  -0.46109  -0.46060
 Alpha  occ. eigenvalues --   -0.45337  -0.44796  -0.44691  -0.44499  -0.43717
 Alpha  occ. eigenvalues --   -0.43168  -0.43103  -0.42409  -0.42358  -0.42126
 Alpha  occ. eigenvalues --   -0.41959  -0.41761  -0.41293  -0.40973  -0.40967
 Alpha  occ. eigenvalues --   -0.40745  -0.40597  -0.40207  -0.39886  -0.39633
 Alpha  occ. eigenvalues --   -0.38813  -0.38741  -0.37408  -0.37381  -0.36891
 Alpha  occ. eigenvalues --   -0.36093  -0.35978  -0.35602  -0.34679  -0.34663
 Alpha  occ. eigenvalues --   -0.34346  -0.33613  -0.33504  -0.33305  -0.32972
 Alpha  occ. eigenvalues --   -0.32595  -0.32184  -0.31797  -0.30799  -0.30236
 Alpha  occ. eigenvalues --   -0.29019  -0.28873  -0.27668  -0.27224  -0.25841
 Alpha  occ. eigenvalues --   -0.25025  -0.23611  -0.23192  -0.21800  -0.18483
 Alpha  occ. eigenvalues --   -0.17053
 Alpha virt. eigenvalues --   -0.10391  -0.08966  -0.05083  -0.03695  -0.03396
 Alpha virt. eigenvalues --   -0.01991  -0.00777   0.00624   0.01458   0.01684
 Alpha virt. eigenvalues --    0.02394   0.02813   0.03142   0.03792   0.03977
 Alpha virt. eigenvalues --    0.04001   0.04615   0.05355   0.05704   0.05912
 Alpha virt. eigenvalues --    0.05999   0.06503   0.07259   0.07658   0.07814
 Alpha virt. eigenvalues --    0.07821   0.08693   0.08926   0.09050   0.09631
 Alpha virt. eigenvalues --    0.09723   0.09940   0.10860   0.10922   0.11138
 Alpha virt. eigenvalues --    0.11712   0.12572   0.12871   0.13422   0.13583
 Alpha virt. eigenvalues --    0.14253   0.14880   0.15167   0.15687   0.17479
 Alpha virt. eigenvalues --    0.17841   0.18342   0.18637   0.18868   0.19279
 Alpha virt. eigenvalues --    0.19547   0.20259   0.22322   0.22416   0.23645
 Alpha virt. eigenvalues --    0.23794   0.23909   0.24348   0.25072   0.25200
 Alpha virt. eigenvalues --    0.25377   0.26237   0.26998   0.27066   0.27390
 Alpha virt. eigenvalues --    0.27690   0.27985   0.28183   0.28716   0.28763
 Alpha virt. eigenvalues --    0.28951   0.29319   0.29589   0.30107   0.30118
 Alpha virt. eigenvalues --    0.30231   0.30640   0.31307   0.31561   0.32139
 Alpha virt. eigenvalues --    0.32200   0.34103   0.34427   0.35029   0.35356
 Alpha virt. eigenvalues --    0.35589   0.35698   0.36043   0.36411   0.36710
 Alpha virt. eigenvalues --    0.36908   0.37550   0.37564   0.37935   0.38059
 Alpha virt. eigenvalues --    0.38541   0.38555   0.38664   0.39006   0.39040
 Alpha virt. eigenvalues --    0.39289   0.39503   0.39555   0.39788   0.40090
 Alpha virt. eigenvalues --    0.40178   0.40501   0.40744   0.41388   0.41574
 Alpha virt. eigenvalues --    0.41745   0.42138   0.42414   0.42431   0.42502
 Alpha virt. eigenvalues --    0.42527   0.42732   0.43172   0.43329   0.43369
 Alpha virt. eigenvalues --    0.43460   0.44101   0.44270   0.44581   0.45145
 Alpha virt. eigenvalues --    0.45168   0.45394   0.45548   0.45600   0.45863
 Alpha virt. eigenvalues --    0.45991   0.46048   0.46162   0.46476   0.46751
 Alpha virt. eigenvalues --    0.46926   0.47192   0.47238   0.47359   0.47862
 Alpha virt. eigenvalues --    0.47873   0.48228   0.48446   0.48713   0.48892
 Alpha virt. eigenvalues --    0.49181   0.49671   0.49989   0.50327   0.50416
 Alpha virt. eigenvalues --    0.50635   0.50759   0.50800   0.51562   0.51743
 Alpha virt. eigenvalues --    0.51866   0.52179   0.52623   0.53334   0.54129
 Alpha virt. eigenvalues --    0.54518   0.54642   0.54665   0.55500   0.55592
 Alpha virt. eigenvalues --    0.56377   0.57018   0.57363   0.57395   0.57446
 Alpha virt. eigenvalues --    0.58373   0.58682   0.59180   0.59296   0.59725
 Alpha virt. eigenvalues --    0.60069   0.60599   0.61008   0.61301   0.61507
 Alpha virt. eigenvalues --    0.61553   0.61891   0.62134   0.62264   0.62648
 Alpha virt. eigenvalues --    0.62710   0.63172   0.63215   0.63469   0.63497
 Alpha virt. eigenvalues --    0.63979   0.64044   0.64613   0.65124   0.65774
 Alpha virt. eigenvalues --    0.66176   0.66185   0.66443   0.66678   0.66751
 Alpha virt. eigenvalues --    0.67329   0.67549   0.68537   0.69855   0.70292
 Alpha virt. eigenvalues --    0.70809   0.70872   0.71589   0.71871   0.72227
 Alpha virt. eigenvalues --    0.72677   0.72776   0.73122   0.73506   0.73762
 Alpha virt. eigenvalues --    0.74312   0.74915   0.75290   0.75659   0.76071
 Alpha virt. eigenvalues --    0.76093   0.76899   0.77407   0.77474   0.78029
 Alpha virt. eigenvalues --    0.78529   0.78879   0.79244   0.79413   0.80409
 Alpha virt. eigenvalues --    0.80594   0.80652   0.81463   0.81571   0.82079
 Alpha virt. eigenvalues --    0.82344   0.83071   0.83139   0.83292   0.83907
 Alpha virt. eigenvalues --    0.84255   0.84589   0.85489   0.85689   0.85882
 Alpha virt. eigenvalues --    0.86701   0.87011   0.87729   0.88783   0.89827
 Alpha virt. eigenvalues --    0.90092   0.90551   0.90929   0.91125   0.91462
 Alpha virt. eigenvalues --    0.91516   0.92636   0.92659   0.93373   0.94455
 Alpha virt. eigenvalues --    0.94582   0.94682   0.95252   0.95906   0.96054
 Alpha virt. eigenvalues --    0.96177   0.96270   0.96598   0.97391   0.97734
 Alpha virt. eigenvalues --    0.98063   0.99042   0.99344   0.99741   1.00269
 Alpha virt. eigenvalues --    1.00289   1.00994   1.01531   1.01906   1.02258
 Alpha virt. eigenvalues --    1.02795   1.03368   1.03493   1.03840   1.04195
 Alpha virt. eigenvalues --    1.04519   1.05058   1.05084   1.05515   1.05760
 Alpha virt. eigenvalues --    1.05986   1.06147   1.06164   1.06397   1.06401
 Alpha virt. eigenvalues --    1.06830   1.07198   1.07704   1.08043   1.08245
 Alpha virt. eigenvalues --    1.09049   1.09219   1.09780   1.10568   1.10597
 Alpha virt. eigenvalues --    1.10852   1.11265   1.11725   1.12829   1.12902
 Alpha virt. eigenvalues --    1.12958   1.13517   1.13952   1.13953   1.14154
 Alpha virt. eigenvalues --    1.14889   1.15303   1.15726   1.16084   1.17089
 Alpha virt. eigenvalues --    1.17301   1.18223   1.18261   1.19118   1.20539
 Alpha virt. eigenvalues --    1.21188   1.22108   1.22652   1.23394   1.23988
 Alpha virt. eigenvalues --    1.24328   1.25763   1.27636   1.27886   1.30143
 Alpha virt. eigenvalues --    1.30507   1.30733   1.32122   1.32262   1.33157
 Alpha virt. eigenvalues --    1.34364   1.35405   1.35925   1.36505   1.37279
 Alpha virt. eigenvalues --    1.38607   1.39231   1.39550   1.40014   1.40292
 Alpha virt. eigenvalues --    1.40413   1.40770   1.40852   1.41569   1.42264
 Alpha virt. eigenvalues --    1.42605   1.43154   1.43937   1.44232   1.44783
 Alpha virt. eigenvalues --    1.45133   1.45701   1.46506   1.47122   1.47135
 Alpha virt. eigenvalues --    1.47350   1.47877   1.48232   1.48889   1.49133
 Alpha virt. eigenvalues --    1.49251   1.49498   1.49868   1.50143   1.50702
 Alpha virt. eigenvalues --    1.50826   1.51416   1.51654   1.52495   1.52789
 Alpha virt. eigenvalues --    1.52897   1.53804   1.53894   1.54211   1.54278
 Alpha virt. eigenvalues --    1.54671   1.54696   1.55101   1.55163   1.55359
 Alpha virt. eigenvalues --    1.55738   1.57395   1.57764   1.57925   1.58312
 Alpha virt. eigenvalues --    1.59044   1.59146   1.59776   1.60473   1.60818
 Alpha virt. eigenvalues --    1.61715   1.61734   1.62492   1.62852   1.64104
 Alpha virt. eigenvalues --    1.64825   1.65372   1.66129   1.66469   1.67589
 Alpha virt. eigenvalues --    1.69012   1.69315   1.69643   1.70326   1.70480
 Alpha virt. eigenvalues --    1.70590   1.71166   1.71685   1.72097   1.72303
 Alpha virt. eigenvalues --    1.73021   1.73541   1.73551   1.73767   1.73802
 Alpha virt. eigenvalues --    1.74019   1.74143   1.74315   1.75082   1.76218
 Alpha virt. eigenvalues --    1.76973   1.78085   1.78466   1.78950   1.79817
 Alpha virt. eigenvalues --    1.79930   1.80013   1.80169   1.81238   1.81801
 Alpha virt. eigenvalues --    1.81932   1.82078   1.82606   1.82626   1.82959
 Alpha virt. eigenvalues --    1.83457   1.84106   1.84360   1.84667   1.85142
 Alpha virt. eigenvalues --    1.85176   1.86545   1.87076   1.87442   1.87507
 Alpha virt. eigenvalues --    1.87526   1.88033   1.88282   1.88407   1.88583
 Alpha virt. eigenvalues --    1.88834   1.88941   1.89017   1.90270   1.90665
 Alpha virt. eigenvalues --    1.90851   1.91374   1.91396   1.92066   1.92248
 Alpha virt. eigenvalues --    1.92528   1.93011   1.93223   1.93542   1.93739
 Alpha virt. eigenvalues --    1.93782   1.93984   1.94394   1.94546   1.95405
 Alpha virt. eigenvalues --    1.95882   1.95970   1.96371   1.96397   1.97280
 Alpha virt. eigenvalues --    1.98145   1.99573   2.00551   2.00585   2.00847
 Alpha virt. eigenvalues --    2.01007   2.01055   2.02362   2.02513   2.04008
 Alpha virt. eigenvalues --    2.05373   2.05801   2.07692   2.07838   2.08662
 Alpha virt. eigenvalues --    2.09254   2.09362   2.10163   2.10721   2.11111
 Alpha virt. eigenvalues --    2.11497   2.11704   2.13028   2.13859   2.14978
 Alpha virt. eigenvalues --    2.15200   2.15909   2.16486   2.16641   2.17690
 Alpha virt. eigenvalues --    2.17963   2.19366   2.20351   2.21465   2.21871
 Alpha virt. eigenvalues --    2.22439   2.22476   2.23071   2.23089   2.23678
 Alpha virt. eigenvalues --    2.24014   2.24690   2.25345   2.26503   2.26687
 Alpha virt. eigenvalues --    2.26694   2.27406   2.27512   2.27800   2.28061
 Alpha virt. eigenvalues --    2.28073   2.29230   2.29444   2.30125   2.32003
 Alpha virt. eigenvalues --    2.33577   2.34999   2.35188   2.36588   2.38707
 Alpha virt. eigenvalues --    2.38806   2.40145   2.40208   2.40695   2.41441
 Alpha virt. eigenvalues --    2.42530   2.42831   2.44327   2.44588   2.45214
 Alpha virt. eigenvalues --    2.45410   2.45737   2.46605   2.46866   2.48819
 Alpha virt. eigenvalues --    2.50781   2.52702   2.53206   2.53219   2.54036
 Alpha virt. eigenvalues --    2.54374   2.54863   2.55212   2.56128   2.56864
 Alpha virt. eigenvalues --    2.57184   2.58262   2.58909   2.59256   2.59304
 Alpha virt. eigenvalues --    2.59624   2.60238   2.60485   2.60654   2.60811
 Alpha virt. eigenvalues --    2.61193   2.61345   2.61813   2.62020   2.62750
 Alpha virt. eigenvalues --    2.63006   2.63363   2.63782   2.64270   2.64771
 Alpha virt. eigenvalues --    2.65217   2.65272   2.65813   2.66262   2.66635
 Alpha virt. eigenvalues --    2.66793   2.67478   2.67918   2.68063   2.68270
 Alpha virt. eigenvalues --    2.68471   2.68803   2.68886   2.69408   2.69574
 Alpha virt. eigenvalues --    2.69788   2.69804   2.69975   2.70085   2.70513
 Alpha virt. eigenvalues --    2.70768   2.71071   2.71650   2.72467   2.73085
 Alpha virt. eigenvalues --    2.73817   2.73933   2.74074   2.74700   2.75110
 Alpha virt. eigenvalues --    2.75450   2.75516   2.76493   2.77047   2.77455
 Alpha virt. eigenvalues --    2.77581   2.77867   2.78254   2.78874   2.79119
 Alpha virt. eigenvalues --    2.79233   2.79839   2.80217   2.81176   2.81531
 Alpha virt. eigenvalues --    2.82114   2.82946   2.83314   2.83545   2.85096
 Alpha virt. eigenvalues --    2.85686   2.86353   2.86889   2.87082   2.87265
 Alpha virt. eigenvalues --    2.87946   2.88934   2.89643   2.90461   2.91808
 Alpha virt. eigenvalues --    2.92171   2.92234   2.93187   2.93278   2.93841
 Alpha virt. eigenvalues --    2.95176   2.95525   2.95836   2.97963   2.97969
 Alpha virt. eigenvalues --    2.98726   2.99618   3.00383   3.01730   3.02783
 Alpha virt. eigenvalues --    3.04450   3.05716   3.06567   3.07270   3.07496
 Alpha virt. eigenvalues --    3.08126   3.08618   3.15622   3.15881   3.16386
 Alpha virt. eigenvalues --    3.16949   3.17248   3.17725   3.19413   3.20150
 Alpha virt. eigenvalues --    3.20862   3.21122   3.23431   3.24650   3.29080
 Alpha virt. eigenvalues --    3.29728   3.30154   3.30668   3.31268   3.32707
 Alpha virt. eigenvalues --    3.34980   3.35339   3.36184   3.36452   3.36768
 Alpha virt. eigenvalues --    3.37049   3.37240   3.37767   3.38982   3.39401
 Alpha virt. eigenvalues --    3.39884   3.40903   3.41009   3.42888   3.44745
 Alpha virt. eigenvalues --    3.44995   3.45916   3.46468   3.48875   3.48990
 Alpha virt. eigenvalues --    3.49853   3.50697   3.51231   3.51535   3.52895
 Alpha virt. eigenvalues --    3.54670   3.57098   3.58421   3.58422   3.59859
 Alpha virt. eigenvalues --    3.61602   3.62500   3.62605   3.63593   3.63779
 Alpha virt. eigenvalues --    3.64299   3.65972   3.66349   3.66670   3.67866
 Alpha virt. eigenvalues --    3.68404   3.68409   3.70120   3.70274   4.00010
 Alpha virt. eigenvalues --    4.00066   4.01369   4.01681   4.01760   4.01792
 Alpha virt. eigenvalues --    4.02826   4.03159   4.15669   4.16231   4.17245
 Alpha virt. eigenvalues --    4.17708   4.18316   4.20350   4.20832   4.21962
 Alpha virt. eigenvalues --    4.22135   4.22631   4.23738   4.24593   4.25521
 Alpha virt. eigenvalues --    4.28064   4.38131   4.40180   4.61725   4.63717
 Alpha virt. eigenvalues --    4.78587   4.79192   4.79964   4.80398   4.80814
 Alpha virt. eigenvalues --    4.81892   4.82015   4.82464   4.84077   4.84432
 Alpha virt. eigenvalues --   23.39614  23.42236  23.54900  23.57743  23.69497
 Alpha virt. eigenvalues --   23.71850  23.77300  23.78526  23.80771  23.81313
 Alpha virt. eigenvalues --   23.82203  23.83077  23.85845  23.87186  23.88762
 Alpha virt. eigenvalues --   23.89542  23.90177  23.90575  23.91928  23.93481
 Alpha virt. eigenvalues --   23.96964  23.98110  23.98519  23.99296  24.08699
 Alpha virt. eigenvalues --   24.09418  24.09961  24.10071  24.10792  24.11391
 Alpha virt. eigenvalues --   24.11722  24.13219  24.13297  24.13791  24.14840
 Alpha virt. eigenvalues --   24.15240  24.15278  24.15530  24.16544  24.16577
 Alpha virt. eigenvalues --   24.19915  24.19960  24.21389  24.21446
          Condensed to atoms (all electrons):
 Mulliken charges:
               1
     1  C   -0.065299
     2  C   -0.046938
     3  C   -0.048308
     4  C   -0.078212
     5  C   -0.091017
     6  C   -0.090297
     7  C    0.000084
     8  C   -0.065337
     9  C   -0.051175
    10  C   -0.035365
    11  H    0.084978
    12  H    0.077934
    13  H    0.076348
    14  H    0.084938
    15  H    0.098075
    16  H    0.097334
    17  C   -0.004300
    18  C   -0.065337
    19  C   -0.055434
    20  C   -0.035365
    21  H    0.076602
    22  H    0.075067
    23  C    0.000084
    24  C   -0.065299
    25  C   -0.051175
    26  C   -0.046938
    27  H    0.077934
    28  H    0.076348
    29  C   -0.048308
    30  C   -0.091017
    31  C   -0.078212
    32  C   -0.090297
    33  H    0.084978
    34  H    0.097334
    35  H    0.098075
    36  H    0.084938
    37  C   -0.032659
    38  C   -0.108231
    39  C   -0.062120
    40  C   -0.053046
    41  C   -0.087600
    42  C   -0.115307
    43  C   -0.028411
    44  C   -0.022232
    45  C   -0.011655
    46  C   -0.111558
    47  H    0.078998
    48  H    0.070905
    49  H    0.119096
    50  H    0.121687
    51  H    0.087707
    52  H    0.091512
    53  C   -0.032708
    54  C   -0.022232
    55  C   -0.015533
    56  C   -0.111558
    57  H    0.069503
    58  H    0.117143
    59  C   -0.028411
    60  C   -0.032659
    61  C   -0.011655
    62  C   -0.108231
    63  H    0.070905
    64  H    0.119096
    65  C   -0.062120
    66  C   -0.087600
    67  C   -0.053046
    68  C   -0.115307
    69  H    0.078998
    70  H    0.091512
    71  H    0.087707
    72  H    0.121687
 Sum of Mulliken charges =   0.00000
 Mulliken charges with hydrogens summed into heavy atoms:
               1
     1  C   -0.065299
     2  C   -0.046938
     3  C    0.036670
     4  C    0.006726
     5  C    0.006317
     6  C    0.007778
     7  C    0.078018
     8  C   -0.065337
     9  C    0.025173
    10  C   -0.035365
    17  C    0.072302
    18  C   -0.065337
    19  C    0.019632
    20  C   -0.035365
    23  C    0.078018
    24  C   -0.065299
    25  C    0.025173
    26  C   -0.046938
    29  C    0.036670
    30  C    0.006317
    31  C    0.006726
    32  C    0.007778
    37  C   -0.032659
    38  C   -0.108231
    39  C    0.016878
    40  C    0.068641
    41  C    0.003911
    42  C   -0.027600
    43  C    0.042494
    44  C   -0.022232
    45  C    0.107442
    46  C   -0.111558
    53  C    0.036795
    54  C   -0.022232
    55  C    0.101610
    56  C   -0.111558
    59  C    0.042494
    60  C   -0.032659
    61  C    0.107442
    62  C   -0.108231
    65  C    0.016878
    66  C    0.003911
    67  C    0.068641
    68  C   -0.027600
         Mulliken charges condensed to fragments:
      1     -0.012576
      2      0.012576
 Electronic spatial extent (au):  <R**2>=          26630.4897
 Charge=              0.0000 electrons
 Dipole moment (field-independent basis, Debye):
    X=              0.4314    Y=             -1.3414    Z=              0.0000  Tot=              1.4091
 Quadrupole moment (field-independent basis, Debye-Ang):
   XX=           -246.0112   YY=           -249.0687   ZZ=           -219.4811
   XY=             -0.2477   XZ=              0.0000   YZ=              0.0000
 Traceless Quadrupole moment (field-independent basis, Debye-Ang):
   XX=             -7.8242   YY=            -10.8817   ZZ=             18.7059
   XY=             -0.2477   XZ=              0.0000   YZ=              0.0000
 Octapole moment (field-independent basis, Debye-Ang**2):
  XXX=             36.7266  YYY=            185.5811  ZZZ=              0.0000  XYY=             -7.4930
  XXY=            -74.9069  XXZ=              0.0000  XZZ=              7.5679  YZZ=            -31.1764
  YYZ=              0.0000  XYZ=              0.0000
 Hexadecapole moment (field-independent basis, Debye-Ang**3):
 XXXX=          -1548.7071 YYYY=         -12462.9224 ZZZZ=         -21016.7331 XXXY=            892.8491
 XXXZ=              0.0000 YYYX=            900.5959 YYYZ=              0.0000 ZZZX=              0.0000
 ZZZY=              0.0000 XXYY=          -2409.5984 XXZZ=          -4205.1530 YYZZ=          -5845.8533
 XXYZ=              0.0000 YYXZ=              0.0000 ZZXY=            263.6347
 N-N= 4.578955842970D+03 E-N=-1.308837306677D+04  KE= 1.686678897286D+03
 Symmetry A'   KE= 9.134180370154D+02
 Symmetry A"   KE= 7.732608602705D+02
 No NMR shielding tensors so no spin-rotation constants.
 Leave Link  601 at Wed Sep 27 16:59:53 2023, MaxMem=  3221225472 cpu:              52.5 elap:               1.4
 (Enter /home/center/opt/aarch64/apps/gaussian16/c01/g16/l122.exe)
 CPIOFr:  IOpCl= 0 IRwI=-1 IRwCP=  731 ICalc= -1 LCPTot=     1419224 Len1MO=     3708034 IndFrg=     1419224
 CPIOFr:  IOpCl= 0 IRwI=-1 IRwCP=  731 ICalc=  0 LCPTot=     1419224 Len1MO=     3708034 IndFrg=     5127258
 Counterpoise: doing calculation for fragment   1 using the basis set of the full-system, NewBq=T
 Leave Link  122 at Wed Sep 27 16:59:55 2023, MaxMem=  3221225472 cpu:               8.3 elap:               0.4
 (Enter /home/center/opt/aarch64/apps/gaussian16/c01/g16/l301.exe)
 Basis read from rwf:  (5D, 7F)
 No pseudopotential information found on rwf file.
 There are   528 symmetry adapted cartesian basis functions of A'  symmetry.
 There are   476 symmetry adapted cartesian basis functions of A"  symmetry.
 There are   504 symmetry adapted basis functions of A'  symmetry.
 There are   456 symmetry adapted basis functions of A"  symmetry.
   960 basis functions,  1632 primitive gaussians,  1004 cartesian basis functions
    73 alpha electrons       73 beta electrons
       nuclear repulsion energy      1494.3575060429 Hartrees.
 IExCor=  402 DFT=T Ex+Corr=B3LYP ExCW=0 ScaHFX=  0.200000
 ScaDFX=  0.800000  0.720000  1.000000  0.810000 ScalE2=  1.000000  1.000000
 IRadAn=      5 IRanWt=     -1 IRanGd=            0 ICorTp=0 IEmpDi=131
 NAtoms=   72 NActive=   72 NUniq=   40 SFac= 3.24D+00 NAtFMM=   60 NAOKFM=T Big=F
 Integral buffers will be    131072 words long.
 Raffenetti 2 integral format.
 Two-electron integral symmetry is turned on.
 R6Disp:  Grimme-D3 Dispersion energy=       -0.0303938888 Hartrees.
 Nuclear repulsion after empirical dispersion term =     1494.3271121541 Hartrees.
 No density basis found on file    718.
 Leave Link  301 at Wed Sep 27 16:59:58 2023, MaxMem=  3221225472 cpu:               2.5 elap:               0.1
 (Enter /home/center/opt/aarch64/apps/gaussian16/c01/g16/l302.exe)
 NPDir=0 NMtPBC=     1 NCelOv=     1 NCel=       1 NClECP=     1 NCelD=      1
         NCelK=      1 NCelE2=     1 NClLst=     1 CellRange=     0.0.
 One-electron integrals computed using PRISM.
 One-electron integral symmetry used in STVInt
 NBasis=   960 RedAO= T EigKep=  3.82D-05  NBF=   504   456
 NBsUse=   960 1.00D-06 EigRej= -1.00D+00 NBFU=   504   456
 Precomputing XC quadrature grid using
 IXCGrd= 4 IRadAn=           5 IRanWt=          -1 IRanGd=           0 AccXCQ= 0.00D+00.
 Generated NRdTot=       0 NPtTot=           0 NUsed=           0 NTot=          32
 NSgBfM=   991   991   991   991   991 MxSgAt=    72 MxSgA2=    72.
 Leave Link  302 at Wed Sep 27 17:00:02 2023, MaxMem=  3221225472 cpu:              59.8 elap:               1.6
 (Enter /home/center/opt/aarch64/apps/gaussian16/c01/g16/l303.exe)
 DipDrv:  MaxL=1.
 Leave Link  303 at Wed Sep 27 17:00:05 2023, MaxMem=  3221225472 cpu:              14.6 elap:               0.5
 (Enter /home/center/opt/aarch64/apps/gaussian16/c01/g16/l401.exe)
 ExpMin= 1.03D-01 ExpMax= 4.56D+03 ExpMxC= 6.82D+02 IAcc=3 IRadAn=         5 AccDes= 0.00D+00
 Harris functional with IExCor=  402 and IRadAn=       5 diagonalized for initial guess.
 HarFok:  IExCor=  402 AccDes= 0.00D+00 IRadAn=         5 IDoV= 1 UseB2=F ITyADJ=14
 ICtDFT=  3500011 ScaDFX=  1.000000  1.000000  1.000000  1.000000
 FoFCou: FMM=F IPFlag=           0 FMFlag=      100000 FMFlg1=        2000
         NFxFlg=           0 DoJE=T BraDBF=F KetDBF=T FulRan=T
         wScrn=  0.000000 ICntrl=       500 IOpCl=  0 I1Cent=   200000004 NGrid=           0
         NMat0=    1 NMatS0=      1 NMatT0=    0 NMatD0=    1 NMtDS0=    0 NMtDT0=    0
 Petite list used in FoFCou.
 Harris En= -847.066180172158    
 JPrj=0 DoOrth=F DoCkMO=F.
 Initial guess orbital symmetries:
       Occupied  (A") (A') (A') (A") (A") (A') (A") (A') (A') (A")
                 (A") (A') (A') (A') (A") (A') (A") (A') (A") (A')
                 (A') (A") (A') (A") (A') (A") (A') (A') (A") (A')
                 (A") (A") (A') (A') (A") (A") (A') (A") (A') (A')
                 (A') (A") (A") (A") (A') (A') (A") (A') (A') (A")
                 (A') (A") (A") (A') (A') (A") (A') (A") (A') (A")
                 (A") (A') (A') (A") (A') (A") (A') (A") (A') (A')
                 (A") (A") (A')
       Virtual   (A') (A") (A") (A') (A') (A") (A') (A") (A') (A")
                 (A') (A') (A") (A') (A") (A') (A') (A") (A') (A")
                 (A") (A") (A') (A') (A") (A') (A') (A') (A') (A')
                 (A") (A") (A') (A") (A') (A") (A') (A") (A") (A')
                 (A') (A") (A") (A') (A") (A') (A") (A') (A") (A')
                 (A') (A") (A') (A") (A') (A') (A") (A') (A") (A")
                 (A') (A') (A') (A") (A") (A') (A") (A') (A") (A')
                 (A') (A") (A") (A') (A') (A") (A') (A') (A') (A')
                 (A") (A") (A') (A") (A") (A') (A') (A") (A') (A")
                 (A") (A") (A") (A') (A') (A") (A') (A") (A') (A')
                 (A') (A') (A") (A') (A") (A") (A') (A') (A') (A")
                 (A") (A') (A') (A") (A') (A") (A") (A") (A') (A")
                 (A") (A') (A') (A") (A') (A') (A") (A') (A") (A')
                 (A") (A') (A') (A') (A") (A') (A") (A") (A') (A')
                 (A') (A') (A") (A') (A") (A') (A") (A") (A') (A")
                 (A") (A') (A") (A") (A') (A") (A') (A') (A') (A")
                 (A') (A") (A') (A") (A') (A') (A") (A") (A') (A")
                 (A") (A') (A") (A') (A') (A") (A') (A') (A") (A')
                 (A") (A") (A') (A') (A") (A") (A') (A") (A') (A")
                 (A') (A') (A') (A") (A') (A") (A') (A") (A') (A")
                 (A') (A") (A") (A") (A') (A') (A") (A') (A') (A")
                 (A') (A") (A') (A") (A") (A') (A") (A') (A") (A')
                 (A") (A') (A') (A') (A") (A") (A') (A') (A') (A")
                 (A') (A") (A') (A") (A") (A') (A") (A') (A") (A")
                 (A') (A") (A') (A') (A") (A') (A') (A") (A") (A")
                 (A") (A') (A") (A') (A') (A') (A') (A') (A") (A")
                 (A") (A') (A") (A') (A') (A') (A") (A") (A') (A")
                 (A') (A') (A") (A") (A") (A') (A") (A') (A") (A')
                 (A') (A") (A") (A') (A') (A') (A") (A") (A') (A')
                 (A") (A') (A") (A') (A') (A') (A") (A") (A') (A')
                 (A") (A') (A') (A") (A") (A') (A") (A") (A") (A")
                 (A') (A") (A') (A') (A") (A') (A') (A") (A') (A')
                 (A") (A') (A") (A") (A') (A') (A") (A') (A') (A")
                 (A") (A') (A') (A') (A") (A') (A") (A') (A') (A")
                 (A") (A") (A") (A') (A') (A") (A") (A') (A') (A')
                 (A') (A") (A") (A') (A") (A') (A") (A') (A') (A')
                 (A") (A') (A") (A') (A") (A") (A") (A') (A') (A")
                 (A') (A") (A") (A') (A') (A") (A") (A') (A") (A')
                 (A") (A') (A') (A") (A") (A') (A') (A") (A') (A')
                 (A") (A") (A") (A') (A") (A') (A') (A') (A") (A")
                 (A') (A') (A") (A") (A") (A') (A") (A') (A') (A")
                 (A") (A') (A') (A') (A') (A") (A') (A") (A") (A')
                 (A") (A") (A') (A") (A') (A") (A') (A") (A') (A")
                 (A") (A') (A') (A') (A') (A') (A") (A") (A") (A')
                 (A") (A') (A') (A") (A') (A') (A") (A") (A") (A')
                 (A") (A') (A') (A') (A') (A") (A') (A") (A") (A")
                 (A") (A') (A') (A") (A') (A") (A') (A") (A') (A')
                 (A') (A") (A") (A') (A") (A") (A') (A") (A') (A")
                 (A') (A") (A") (A') (A") (A') (A') (A") (A") (A')
                 (A") (A') (A") (A') (A') (A") (A') (A') (A") (A")
                 (A') (A") (A') (A") (A') (A") (A") (A') (A') (A')
                 (A") (A') (A") (A") (A") (A') (A") (A') (A') (A')
                 (A") (A') (A") (A") (A') (A") (A') (A') (A") (A')
                 (A") (A') (A') (A") (A') (A") (A') (A") (A') (A')
                 (A") (A") (A') (A') (A') (A") (A') (A") (A") (A')
                 (A") (A") (A') (A') (A") (A') (A') (A") (A') (A")
                 (A') (A") (A') (A') (A") (A") (A") (A") (A') (A")
                 (A') (A') (A') (A') (A") (A') (A') (A") (A') (A")
                 (A") (A') (A") (A") (A') (A') (A") (A") (A") (A')
                 (A') (A') (A") (A') (A') (A") (A') (A") (A') (A")
                 (A') (A") (A") (A") (A') (A') (A") (A') (A") (A')
                 (A') (A") (A') (A") (A') (A") (A') (A") (A') (A")
                 (A') (A') (A") (A") (A') (A") (A") (A') (A') (A")
                 (A") (A') (A") (A") (A") (A') (A') (A') (A') (A')
                 (A") (A") (A') (A") (A') (A") (A') (A") (A') (A")
                 (A') (A") (A') (A") (A') (A") (A") (A') (A") (A')
                 (A") (A') (A") (A') (A") (A') (A") (A") (A') (A')
                 (A') (A") (A") (A') (A') (A") (A') (A") (A') (A')
                 (A") (A') (A") (A') (A') (A") (A") (A') (A') (A")
                 (A') (A") (A') (A') (A") (A") (A') (A") (A') (A')
[...]
                 (A') (A') (A") (A") (A') (A") (A') (A") (A') (A')
                 (A") (A") (A')
       Virtual   (A') (A") (A") (A') (A') (A") (A') (A') (A') (A")
                 (A") (A') (A") (A') (A") (A') (A") (A") (A') (A")
                 (A') (A') (A") (A') (A") (A') (A') (A') (A') (A")
                 (A") (A") (A") (A') (A') (A") (A') (A") (A') (A")
                 (A') (A') (A') (A") (A') (A") (A") (A') (A') (A")
                 (A") (A') (A') (A") (A') (A") (A") (A") (A') (A")
                 (A') (A') (A') (A') (A') (A") (A') (A') (A") (A")
                 (A") (A') (A') (A') (A") (A') (A") (A") (A") (A')
                 (A') (A") (A') (A") (A") (A') (A") (A') (A') (A')
                 (A') (A') (A") (A") (A") (A") (A') (A") (A') (A")
                 (A') (A') (A') (A") (A") (A') (A') (A") (A') (A")
                 (A') (A") (A") (A") (A') (A') (A") (A') (A') (A")
                 (A') (A") (A") (A') (A') (A") (A') (A") (A') (A")
                 (A") (A') (A') (A') (A') (A") (A") (A") (A') (A")
                 (A') (A") (A') (A") (A') (A') (A") (A") (A') (A")
                 (A') (A") (A') (A") (A') (A') (A") (A') (A") (A")
                 (A') (A") (A') (A') (A") (A") (A') (A") (A') (A")
                 (A') (A') (A") (A') (A') (A") (A") (A') (A') (A')
                 (A") (A') (A") (A") (A") (A") (A') (A") (A') (A')
                 (A") (A') (A") (A') (A') (A') (A") (A') (A") (A')
                 (A") (A") (A') (A') (A") (A") (A') (A') (A") (A')
                 (A') (A') (A') (A") (A") (A") (A") (A') (A') (A")
                 (A') (A") (A") (A') (A") (A') (A") (A') (A") (A')
                 (A") (A') (A') (A") (A') (A") (A") (A') (A') (A")
                 (A") (A') (A') (A") (A") (A') (A") (A") (A") (A')
                 (A') (A") (A') (A') (A") (A') (A') (A") (A') (A")
                 (A") (A') (A") (A') (A') (A") (A") (A") (A') (A')
                 (A") (A') (A') (A") (A") (A") (A') (A") (A') (A')
                 (A") (A') (A") (A') (A") (A') (A') (A') (A") (A')
                 (A") (A") (A') (A') (A") (A") (A') (A") (A') (A")
                 (A') (A') (A") (A") (A') (A') (A") (A') (A') (A')
                 (A") (A") (A') (A") (A') (A") (A') (A") (A') (A')
                 (A') (A") (A") (A") (A') (A") (A') (A') (A') (A")
                 (A") (A') (A") (A') (A') (A") (A') (A") (A") (A')
                 (A') (A") (A') (A") (A") (A') (A') (A") (A') (A")
                 (A') (A") (A') (A") (A') (A") (A") (A') (A') (A")
                 (A') (A") (A') (A') (A") (A") (A') (A") (A') (A')
                 (A") (A') (A") (A') (A') (A") (A') (A") (A') (A")
                 (A") (A') (A") (A') (A") (A') (A") (A') (A') (A")
                 (A") (A') (A") (A') (A') (A") (A") (A') (A') (A")
                 (A') (A") (A') (A") (A') (A') (A")
 The electronic state is 1-A'.
 Alpha  occ. eigenvalues --  -10.18931 -10.18930 -10.18896 -10.18895 -10.18848
 Alpha  occ. eigenvalues --  -10.18848 -10.18813 -10.18813 -10.17956 -10.17955
 Alpha  occ. eigenvalues --  -10.17920 -10.17920 -10.17919 -10.17919 -10.17875
 Alpha  occ. eigenvalues --  -10.17875 -10.17863 -10.17863 -10.17808 -10.17808
 Alpha  occ. eigenvalues --  -10.17781 -10.17781  -0.89340  -0.87865  -0.85549
 Alpha  occ. eigenvalues --   -0.82415  -0.79820  -0.78521  -0.78314  -0.75991
 Alpha  occ. eigenvalues --   -0.74255  -0.72901  -0.69196  -0.67344  -0.62728
 Alpha  occ. eigenvalues --   -0.62370  -0.61108  -0.59964  -0.59301  -0.57689
 Alpha  occ. eigenvalues --   -0.52709  -0.52573  -0.52293  -0.49654  -0.48513
 Alpha  occ. eigenvalues --   -0.47160  -0.46110  -0.45590  -0.45476  -0.43928
 Alpha  occ. eigenvalues --   -0.43182  -0.42578  -0.41808  -0.41572  -0.41386
 Alpha  occ. eigenvalues --   -0.40692  -0.40405  -0.39579  -0.38193  -0.36732
 Alpha  occ. eigenvalues --   -0.36341  -0.35550  -0.34094  -0.33809  -0.33058
 Alpha  occ. eigenvalues --   -0.32930  -0.31612  -0.29665  -0.28406  -0.26623
 Alpha  occ. eigenvalues --   -0.24364  -0.22582  -0.17855
 Alpha virt. eigenvalues --   -0.09755  -0.04464  -0.02747  -0.00147   0.02073
 Alpha virt. eigenvalues --    0.02370   0.03189   0.04746   0.04859   0.04871
 Alpha virt. eigenvalues --    0.06161   0.06575   0.07968   0.08162   0.08303
 Alpha virt. eigenvalues --    0.09607   0.10049   0.11524   0.11533   0.13796
 Alpha virt. eigenvalues --    0.14111   0.14670   0.18092   0.18194   0.18832
 Alpha virt. eigenvalues --    0.19391   0.22815   0.23002   0.24379   0.24942
 Alpha virt. eigenvalues --    0.25581   0.27528   0.27575   0.28012   0.28228
 Alpha virt. eigenvalues --    0.28947   0.29389   0.30158   0.30759   0.31175
 Alpha virt. eigenvalues --    0.32897   0.34528   0.36420   0.36484   0.37134
 Alpha virt. eigenvalues --    0.37503   0.37629   0.37651   0.38116   0.38643
 Alpha virt. eigenvalues --    0.39094   0.39439   0.39739   0.40236   0.40435
 Alpha virt. eigenvalues --    0.41918   0.41926   0.41940   0.42289   0.42318
 Alpha virt. eigenvalues --    0.42643   0.43748   0.44233   0.44835   0.45295
 Alpha virt. eigenvalues --    0.45683   0.45924   0.45953   0.46379   0.47165
 Alpha virt. eigenvalues --    0.47805   0.47809   0.47978   0.48073   0.48231
 Alpha virt. eigenvalues --    0.48568   0.49414   0.49572   0.51377   0.51846
 Alpha virt. eigenvalues --    0.52370   0.53118   0.53671   0.55998   0.57923
 Alpha virt. eigenvalues --    0.57955   0.59048   0.59201   0.60433   0.60585
 Alpha virt. eigenvalues --    0.60693   0.61101   0.61690   0.62105   0.62173
 Alpha virt. eigenvalues --    0.63432   0.63481   0.64458   0.64535   0.65533
 Alpha virt. eigenvalues --    0.66693   0.66910   0.67680   0.67724   0.70658
 Alpha virt. eigenvalues --    0.71305   0.71405   0.71494   0.72803   0.73989
 Alpha virt. eigenvalues --    0.75405   0.75894   0.76289   0.77801   0.77809
 Alpha virt. eigenvalues --    0.78943   0.79160   0.79723   0.81162   0.81509
 Alpha virt. eigenvalues --    0.82881   0.83001   0.84383   0.84585   0.84713
 Alpha virt. eigenvalues --    0.88087   0.89711   0.89765   0.91536   0.92083
 Alpha virt. eigenvalues --    0.92578   0.93749   0.95806   0.96107   0.96442
 Alpha virt. eigenvalues --    0.96590   0.96905   0.98547   1.00356   1.01118
 Alpha virt. eigenvalues --    1.02686   1.03027   1.03354   1.04405   1.05244
 Alpha virt. eigenvalues --    1.05439   1.05525   1.05950   1.07395   1.07547
 Alpha virt. eigenvalues --    1.07686   1.08438   1.10005   1.10036   1.12070
 Alpha virt. eigenvalues --    1.13223   1.13544   1.13650   1.14526   1.15341
 Alpha virt. eigenvalues --    1.17432   1.18332   1.19657   1.20432   1.23014
 Alpha virt. eigenvalues --    1.23618   1.27884   1.28234   1.30579   1.32076
 Alpha virt. eigenvalues --    1.32743   1.34942   1.37641   1.39236   1.39896
 Alpha virt. eigenvalues --    1.39942   1.40725   1.42751   1.43476   1.43554
 Alpha virt. eigenvalues --    1.45057   1.46086   1.47119   1.47538   1.48841
 Alpha virt. eigenvalues --    1.49280   1.49417   1.50258   1.50674   1.52268
 Alpha virt. eigenvalues --    1.52650   1.53402   1.54331   1.54372   1.54781
 Alpha virt. eigenvalues --    1.54807   1.57107   1.57715   1.58569   1.59882
 Alpha virt. eigenvalues --    1.60106   1.62692   1.63242   1.64856   1.66641
 Alpha virt. eigenvalues --    1.69292   1.69605   1.69709   1.70649   1.71804
 Alpha virt. eigenvalues --    1.72459   1.72619   1.73075   1.73096   1.73680
 Alpha virt. eigenvalues --    1.77494   1.78519   1.79157   1.79419   1.80511
 Alpha virt. eigenvalues --    1.81616   1.81887   1.82058   1.83581   1.84039
 Alpha virt. eigenvalues --    1.85487   1.87392   1.87456   1.87577   1.87728
 Alpha virt. eigenvalues --    1.88131   1.88613   1.90743   1.91387   1.92190
 Alpha virt. eigenvalues --    1.92193   1.92572   1.92670   1.93517   1.93938
 Alpha virt. eigenvalues --    1.94544   1.95483   1.97262   1.99429   2.00088
 Alpha virt. eigenvalues --    2.00602   2.01362   2.03019   2.05757   2.08293
 Alpha virt. eigenvalues --    2.09111   2.09256   2.09792   2.12192   2.14098
 Alpha virt. eigenvalues --    2.15528   2.15584   2.17200   2.19751   2.20833
 Alpha virt. eigenvalues --    2.21576   2.22525   2.23381   2.24503   2.26441
 Alpha virt. eigenvalues --    2.26972   2.27242   2.27719   2.28046   2.29391
 Alpha virt. eigenvalues --    2.33301   2.35725   2.39155   2.39384   2.40817
 Alpha virt. eigenvalues --    2.42649   2.43076   2.45776   2.45994   2.46870
 Alpha virt. eigenvalues --    2.51623   2.51954   2.53354   2.53485   2.55138
 Alpha virt. eigenvalues --    2.56159   2.58701   2.58838   2.59764   2.59776
 Alpha virt. eigenvalues --    2.60682   2.61147   2.61719   2.62222   2.63349
 Alpha virt. eigenvalues --    2.63999   2.64478   2.66054   2.66794   2.67121
 Alpha virt. eigenvalues --    2.67374   2.68356   2.68872   2.68876   2.69372
 Alpha virt. eigenvalues --    2.69557   2.69907   2.70083   2.70281   2.73482
 Alpha virt. eigenvalues --    2.74771   2.74836   2.76066   2.77101   2.77577
 Alpha virt. eigenvalues --    2.78232   2.78455   2.78850   2.80822   2.82359
 Alpha virt. eigenvalues --    2.85535   2.85993   2.86737   2.87294   2.90966
 Alpha virt. eigenvalues --    2.91783   2.92195   2.93676   2.95232   2.95887
 Alpha virt. eigenvalues --    2.99270   2.99858   3.03165   3.05604   3.06852
 Alpha virt. eigenvalues --    3.07371   3.15988   3.16029   3.16647   3.19843
 Alpha virt. eigenvalues --    3.20017   3.23601   3.29134   3.29680   3.31610
 Alpha virt. eigenvalues --    3.35095   3.35458   3.35677   3.35858   3.38023
 Alpha virt. eigenvalues --    3.39887   3.41413   3.44960   3.45362   3.47993
 Alpha virt. eigenvalues --    3.48278   3.50401   3.53073   3.57439   3.58649
 Alpha virt. eigenvalues --    3.61466   3.62620   3.63208   3.63698   3.65910
 Alpha virt. eigenvalues --    3.67534   3.67678   4.00384   4.00442   4.01859
 Alpha virt. eigenvalues --    4.02182   4.16133   4.16678   4.17360   4.21240
 Alpha virt. eigenvalues --    4.22396   4.22517   4.25488   4.38492   4.62290
 Alpha virt. eigenvalues --    4.79179   4.79740   4.80562   4.82562   4.83014
 Alpha virt. eigenvalues --   23.39176  23.54541  23.69085  23.77378  23.80419
 Alpha virt. eigenvalues --   23.81537  23.86099  23.89067  23.89154  23.92210
 Alpha virt. eigenvalues --   23.97563  23.98365  24.09049  24.09932  24.10529
 Alpha virt. eigenvalues --   24.12220  24.13779  24.14375  24.15775  24.15810
 Alpha virt. eigenvalues --   24.20452  24.20497
          Condensed to atoms (all electrons):
 Mulliken charges:
               1
     1  C    0.000000
     2  C    0.000000
     3  C    0.000000
     4  C    0.000000
     5  C    0.000000
     6  C    0.000000
     7  C    0.000000
     8  C    0.000000
     9  C    0.000000
    10  C    0.000000
    11  H    0.000000
    12  H    0.000000
    13  H    0.000000
    14  H    0.000000
    15  H    0.000000
    16  H    0.000000
    17  C    0.000000
    18  C    0.000000
    19  C    0.000000
    20  C    0.000000
    21  H    0.000000
    22  H    0.000000
    23  C    0.000000
    24  C    0.000000
    25  C    0.000000
    26  C    0.000000
    27  H    0.000000
    28  H    0.000000
    29  C    0.000000
    30  C    0.000000
    31  C    0.000000
    32  C    0.000000
    33  H    0.000000
    34  H    0.000000
    35  H    0.000000
    36  H    0.000000
    37  C   -0.059168
    38  C   -0.059168
    39  C   -0.055977
    40  C   -0.055977
    41  C   -0.092198
    42  C   -0.092198
    43  C   -0.016525
    44  C   -0.054498
    45  C   -0.016525
    46  C   -0.054498
    47  H    0.082122
    48  H    0.074853
    49  H    0.074853
    50  H    0.082122
    51  H    0.094847
    52  H    0.094847
    53  C   -0.020341
    54  C   -0.054498
    55  C   -0.020341
    56  C   -0.054498
    57  H    0.073428
    58  H    0.073428
    59  C   -0.016525
    60  C   -0.059168
    61  C   -0.016525
    62  C   -0.059168
    63  H    0.074853
    64  H    0.074853
    65  C   -0.055977
    66  C   -0.092198
    67  C   -0.055977
    68  C   -0.092198
    69  H    0.082122
    70  H    0.094847
    71  H    0.094847
    72  H    0.082122
 Sum of Mulliken charges =   0.00000
 Mulliken charges with hydrogens summed into heavy atoms:
               1
     1  C    0.000000
     2  C    0.000000
     3  C    0.000000
     4  C    0.000000
     5  C    0.000000
     6  C    0.000000
     7  C    0.000000
     8  C    0.000000
     9  C    0.000000
    10  C    0.000000
    17  C    0.000000
    18  C    0.000000
    19  C    0.000000
    20  C    0.000000
    23  C    0.000000
    24  C    0.000000
    25  C    0.000000
    26  C    0.000000
    29  C    0.000000
    30  C    0.000000
    31  C    0.000000
    32  C    0.000000
    37  C   -0.059168
    38  C   -0.059168
    39  C    0.026144
    40  C    0.026144
    41  C    0.002649
    42  C    0.002649
    43  C    0.058328
    44  C   -0.054498
    45  C    0.058328
    46  C   -0.054498
    53  C    0.053087
    54  C   -0.054498
    55  C    0.053087
    56  C   -0.054498
    59  C    0.058328
    60  C   -0.059168
    61  C    0.058328
    62  C   -0.059168
    65  C    0.026144
    66  C    0.002649
    67  C    0.026144
    68  C    0.002649
         Mulliken charges condensed to fragments:
      1      0.000000
      2      0.000000
 Electronic spatial extent (au):  <R**2>=          19856.0385
 Charge=              0.0000 electrons
 Dipole moment (field-independent basis, Debye):
    X=              0.0000    Y=              0.0000    Z=              0.0000  Tot=              0.0000
 Quadrupole moment (field-independent basis, Debye-Ang):
   XX=           -136.3921   YY=           -110.7480   ZZ=           -109.0115
   XY=              0.0000   XZ=              0.0000   YZ=              0.0000
 Traceless Quadrupole moment (field-independent basis, Debye-Ang):
   XX=            -17.6749   YY=              7.9692   ZZ=              9.7057
   XY=              0.0000   XZ=              0.0000   YZ=              0.0000
 Octapole moment (field-independent basis, Debye-Ang**2):
  XXX=           1301.9906  YYY=           1057.1942  ZZZ=              0.0000  XYY=            352.3981
  XXY=            433.9969  XXZ=              0.0000  XZZ=            346.8724  YZZ=            346.8724
  YYZ=              0.0000  XYZ=              0.0000
 Hexadecapole moment (field-independent basis, Debye-Ang**3):
 XXXX=          -8440.2215 YYYY=          -7844.6597 ZZZZ=         -10461.4324 XXXY=          -4142.9088
 XXXZ=              0.0000 YYYX=          -3363.9715 YYYZ=              0.0000 ZZZX=              0.0000
 ZZZY=              0.0000 XXYY=          -2758.7088 XXZZ=          -3311.6732 YYZZ=          -3072.9556
 XXYZ=              0.0000 YYXZ=              0.0000 ZZXY=          -1103.7412
 N-N= 1.494327111597D+03 E-N=-4.953709174724D+03  KE= 8.433374904838D+02
 Symmetry A'   KE= 4.567052305353D+02
 Symmetry A"   KE= 3.866322599485D+02
 No NMR shielding tensors so no spin-rotation constants.
 Leave Link  601 at Wed Sep 27 17:16:35 2023, MaxMem=  3221225472 cpu:              18.3 elap:               0.5
 (Enter /home/center/opt/aarch64/apps/gaussian16/c01/g16/l122.exe)
 CPIOFr:  IOpCl= 0 IRwI=-1 IRwCP=  731 ICalc=  4 LCPTot=     1419224 Len1MO=     3708034 IndFrg=    19959394
 Restoring MOs from calculation   1 to rwf.
 CPIOFr:  IOpCl= 0 IRwI=-2 IRwCP=  731 ICalc=  0 LCPTot=     1419224 Len1MO=     3708034 IndFrg=     5127258
 Counterpoise corrected energy =   -1694.040635791329
                   BSSE energy =      -0.000001056161
              sum of fragments =   -1694.039683044258
           complexation energy =      -0.60 kcal/mole (raw)
           complexation energy =      -0.60 kcal/mole (corrected)
 Leave Link  122 at Wed Sep 27 17:16:38 2023, MaxMem=  3221225472 cpu:               8.3 elap:               0.4
 (Enter /home/center/opt/aarch64/apps/gaussian16/c01/g16/l9999.exe)

 Test job not archived.
 1\1\GINC-FX0469\SP\RB3LYP\6-311G(d,p)\C44H28\Z40145W\27-Sep-2023\0\\#P
  TEST b3lyp/6-311G** EmpiricalDispersion=GD3 counterpoise=2\\pentacene
 _A1=0_A2=0_A3=45_p2\\0,1\C,0,-0.5039478476,0.5239478476,-3.6612755801\
 C,0,0.5239480325,-0.5039480325,-3.6612755629\C,0,-0.9861248463,1.00612
 48463,-4.9235927708\C,0,1.0061250889,-0.9861250889,-4.9235926697\C,0,-
 0.4963213507,0.5163213507,-6.096356521\C,0,0.5163216812,-0.4963216812,
 -6.0963564796\C,0,-0.9844684311,1.0044684311,-2.4533174875\C,0,-0.5044
 88426,0.524488426,-1.2140288145\C,0,1.0044685359,-0.9844685359,-2.4533
 173917\C,0,0.5244885437,-0.5044885437,-1.2140288362\H,0,-1.7533559667,
 1.7733559667,-4.9232600459\H,0,-1.7521866813,1.7721866813,-2.453928581
 5\H,0,1.7721859268,-1.7521859268,-2.4539284818\H,0,1.7733558421,-1.753
 3558421,-4.9232597785\H,0,0.8905568758,-0.8705568758,-7.0425276922\H,0
 ,-0.8705565046,0.8905565046,-7.042527775\C,0,-0.9848184961,1.004818496
 1,0.0099998782\C,0,-0.5044883957,0.5244883957,1.2340295553\C,0,1.00481
 85643,-0.9848185643,0.0099998696\C,0,0.5244885146,-0.5044885146,1.2340
 295261\H,0,-1.7524699697,1.7724699697,0.0099999205\H,0,1.772468921,-1.
 752468921,0.0099999641\C,0,-0.9844683048,1.0044683048,2.4733171385\C,0
 ,-0.5039477114,0.5239477114,3.681276331\C,0,1.0044684211,-0.9844684211
 ,2.4733170835\C,0,0.5239479079,-0.5039479079,3.6812763217\H,0,-1.75218
 65527,1.7721865527,2.4739285326\H,0,1.7721858092,-1.7521858092,2.47392
 83796\C,0,-0.9861245177,1.0061245177,4.9435920588\C,0,-0.4963209372,0.
 5163209372,6.116356633\C,0,1.0061247659,-0.9861247659,4.9435919377\C,0
 ,0.5163212637,-0.4963212637,6.1163566075\H,0,-1.7533556504,1.773355650
 4,4.9432601504\H,0,-0.8705567426,0.8905567426,7.0625274368\H,0,0.89055
 70967,-0.8705570967,7.0625272142\H,0,1.7733555414,-1.7533555414,4.9432
 599297\C,0,8.4960521524,0.5239478476,-3.6612755801\C,0,9.5239480325,-0
 .5039480325,-3.6612755629\C,0,8.0138751537,1.0061248463,-4.9235927708\
 C,0,10.0061250889,-0.9861250889,-4.9235926697\C,0,8.5036786493,0.51632
 13507,-6.096356521\C,0,9.5163216812,-0.4963216812,-6.0963564796\C,0,8.
 0155315689,1.0044684311,-2.4533174875\C,0,8.495511574,0.524488426,-1.2
 140288145\C,0,10.0044685359,-0.9844685359,-2.4533173917\C,0,9.52448854
 37,-0.5044885437,-1.2140288362\H,0,7.2466440333,1.7733559667,-4.923260
 0459\H,0,7.2478133187,1.7721866813,-2.4539285815\H,0,10.7721859268,-1.
 7521859268,-2.4539284818\H,0,10.7733558421,-1.7533558421,-4.9232597785
 \H,0,9.8905568758,-0.8705568758,-7.0425276922\H,0,8.1294434954,0.89055
 65046,-7.042527775\C,0,8.0151815039,1.0048184961,0.0099998782\C,0,8.49
 55116043,0.5244883957,1.2340295553\C,0,10.0048185643,-0.9848185643,0.0
 099998696\C,0,9.5244885146,-0.5044885146,1.2340295261\H,0,7.2475300303
 ,1.7724699697,0.0099999205\H,0,10.772468921,-1.752468921,0.0099999641\
 C,0,8.0155316952,1.0044683048,2.4733171385\C,0,8.4960522886,0.52394771
 14,3.681276331\C,0,10.0044684211,-0.9844684211,2.4733170835\C,0,9.5239
 479079,-0.5039479079,3.6812763217\H,0,7.2478134473,1.7721865527,2.4739
 285326\H,0,10.7721858092,-1.7521858092,2.4739283796\C,0,8.0138754823,1
 .0061245177,4.9435920588\C,0,8.5036790628,0.5163209372,6.116356633\C,0
 ,10.0061247659,-0.9861247659,4.9435919377\C,0,9.5163212637,-0.49632126
 37,6.1163566075\H,0,7.2466443496,1.7733556504,4.9432601504\H,0,8.12944
 32574,0.8905567426,7.0625274368\H,0,9.8905570967,-0.8705570967,7.06252
 72142\H,0,10.7733555414,-1.7533555414,4.9432599297\\Version=Fujitsu-Ar
 m-G16RevC.01\State=1-A'\HF=-847.0198415\RMSD=3.182e-09\Dipole=0.000020
 7,-0.0000207,0.\Quadrupole=-7.7321622,-6.685189,14.4173512,-18.4800291
 ,0.,0.\PG=CS [SG(C4H4),X(C40H24)]\\@


 The impersonal hand of government can
 never replace the helping hand of a neighbor.
                        -- Hubert H. Humphrey
 Job cpu time:       0 days  2 hours 38 minutes 40.3 seconds.
 Elapsed time:       0 days  0 hours  4 minutes 10.5 seconds.
 File lengths (MBytes):  RWF=    718 Int=      0 D2E=      0 Chk=    208 Scr=      1
 Normal termination of Gaussian 16 at Wed Sep 27 17:16:43 2023.
