 Entering Gaussian System, Link 0=g16
 Initial command:
 /home/center/opt/aarch64/apps/gaussian16/c01/g16/l1.exe "/data/tmp/Gtmp/1006912/Gau-49.inp" -scrdir="/data/tmp/Gtmp/1006912/"
 Entering Link 1 = /home/center/opt/aarch64/apps/gaussian16/c01/g16/l1.exe PID=        50.
  
 Copyright (c) 1988-2019, Gaussian, Inc.  All Rights Reserved.
  
 This is part of the Gaussian(R) 16 program.  It is based on
 the Gaussian(R) 09 system (copyright 2009, Gaussian, Inc.),
 the Gaussian(R) 03 system (copyright 2003, Gaussian, Inc.),
 the Gaussian(R) 98 system (copyright 1998, Gaussian, Inc.),
 the Gaussian(R) 94 system (copyright 1995, Gaussian, Inc.),
 the Gaussian 92(TM) system (copyright 1992, Gaussian, Inc.),
 the Gaussian 90(TM) system (copyright 1990, Gaussian, Inc.),
 the Gaussian 88(TM) system (copyright 1988, Gaussian, Inc.),
 the Gaussian 86(TM) system (copyright 1986, Carnegie Mellon
 University), and the Gaussian 82(TM) system (copyright 1983,
 Carnegie Mellon University). Gaussian is a federally registered
 trademark of Gaussian, Inc.
  
 This software contains proprietary and confidential information,
 including trade secrets, belonging to Gaussian, Inc.
  
 This software is provided under written license and may be
 used, copied, transmitted, or stored only in accord with that
 written license.
  
 The following legend is applicable only to US Government
 contracts under FAR:
  
                    RESTRICTED RIGHTS LEGEND
  
 Use, reproduction and disclosure by the US Government is
 subject to restrictions as set forth in subparagraphs (a)
 and (c) of the Commercial Computer Software - Restricted
 Rights clause in FAR 52.227-19.
  
 Gaussian, Inc.
 340 Quinnipiac St., Bldg. 40, Wallingford CT 06492
  
  
 ---------------------------------------------------------------
 Warning -- This program may not be used in any manner that
 competes with the business of Gaussian, Inc. or will provide
 assistance to any competitor of Gaussian, Inc.  The licensee
 of this program is prohibited from giving any competitor of
 Gaussian, Inc. access to this program.  By using this program,
 the user acknowledges that Gaussian, Inc. is engaged in the
 business of creating and licensing software in the field of
 computational chemistry and represents and warrants to the
 licensee that it is not a competitor of Gaussian, Inc. and that
 it will not use this program in any manner prohibited above.
 ---------------------------------------------------------------
  

 Cite this work as:
 Gaussian 16, Revision C.01,
 M. J. Frisch, G. W. Trucks, H. B. Schlegel, G. E. Scuseria, 
 M. A. Robb, J. R. Cheeseman, G. Scalmani, V. Barone, 
 G. A. Petersson, H. Nakatsuji, X. Li, M. Caricato, A. V. Marenich, 
 J. Bloino, B. G. Janesko, R. Gomperts, B. Mennucci, H. P. Hratchian, 
 J. V. Ortiz, A. F. Izmaylov, J. L. Sonnenberg, D. Williams-Young, 
 F. Ding, F. Lipparini, F. Egidi, J. Goings, B. Peng, A. Petrone, 
 T. Henderson, D. Ranasinghe, V. G. Zakrzewski, J. Gao, N. Rega, 
 G. Zheng, W. Liang, M. Hada, M. Ehara, K. Toyota, R. Fukuda, 
 J. Hasegawa, M. Ishida, T. Nakajima, Y. Honda, O. Kitao, H. Nakai, 
 T. Vreven, K. Throssell, J. A. Montgomery, Jr., J. E. Peralta, 
 F. Ogliaro, M. J. Bearpark, J. J. Heyd, E. N. Brothers, K. N. Kudin, 
 V. N. Staroverov, T. A. Keith, R. Kobayashi, J. Normand, 
 K. Raghavachari, A. P. Rendell, J. C. Burant, S. S. Iyengar, 
 J. Tomasi, M. Cossi, J. M. Millam, M. Klene, C. Adamo, R. Cammi, 
 J. W. Ochterski, R. L. Martin, K. Morokuma, O. Farkas, 
 J. B. Foresman, and D. J. Fox, Gaussian, Inc., Wallingford CT, 2019.
 
 ************************************************
 Gaussian 16:  Fujitsu-Arm-G16RevC.01  3-Jul-2019
                   27-Sep-2023 
 ************************************************
 %mem=24GB
 %nproc=42
 Will use up to   42 processors via shared memory.
 -------------------------------------------------------------
 #P TEST b3lyp/6-311G** EmpiricalDispersion=GD3 counterpoise=2
 -------------------------------------------------------------
 1/38=1,62=2,172=1/1;
 2/12=2,17=6,18=5,40=1/2;
 1/38=1,53=2,62=2,63=1/22;
 3/5=4,6=6,7=101,11=2,25=1,30=1,74=-5,124=31/1,2,3;
 4//1;
 5/5=2,38=5/2;
 6/7=2,8=2,9=2,10=2,28=1/1;
 1/53=2,62=2,63=1/22;
 3/5=7,6=11,7=101,11=2,25=1,30=1,74=-5,82=7,124=31/1,2,3;
 4//1;
 5/5=2,38=5/2;
 6/7=2,8=2,9=2,10=2,28=1/1;
 1/53=2,62=2,63=1/22(-4);
 99/5=1,9=1/99;
 Leave Link    1 at Wed Sep 27 16:37:34 2023, MaxMem=  3221225472 cpu:               6.0 elap:               0.2
 (Enter /home/center/opt/aarch64/apps/gaussian16/c01/g16/l101.exe)
 ----------------------------
 pentacene_A1=0_A2=0_A3=45_t1
 ----------------------------
 Symbolic Z-matrix:
 Charge =  0 Multiplicity = 1 in supermolecule
 Charge =  0 Multiplicity = 1 in fragment      1.
 Charge =  0 Multiplicity = 1 in fragment      2.
 C(Fragment=1)        -0.50395   0.52395  -3.66128 
 C(Fragment=1)         0.52395  -0.50395  -3.66128 
 C(Fragment=1)        -0.98612   1.00612  -4.92359 
 C(Fragment=1)         1.00613  -0.98613  -4.92359 
 C(Fragment=1)        -0.49632   0.51632  -6.09636 
 C(Fragment=1)         0.51632  -0.49632  -6.09636 
 C(Fragment=1)        -0.98447   1.00447  -2.45332 
 C(Fragment=1)        -0.50449   0.52449  -1.21403 
 C(Fragment=1)         1.00447  -0.98447  -2.45332 
 C(Fragment=1)         0.52449  -0.50449  -1.21403 
 H(Fragment=1)        -1.75336   1.77336  -4.92326 
 H(Fragment=1)        -1.75219   1.77219  -2.45393 
 H(Fragment=1)         1.77219  -1.75219  -2.45393 
 H(Fragment=1)         1.77336  -1.75336  -4.92326 
 H(Fragment=1)         0.89056  -0.87056  -7.04253 
 H(Fragment=1)        -0.87056   0.89056  -7.04253 
 C(Fragment=1)        -0.98482   1.00482   0.01 
 C(Fragment=1)        -0.50449   0.52449   1.23403 
 C(Fragment=1)         1.00482  -0.98482   0.01 
 C(Fragment=1)         0.52449  -0.50449   1.23403 
 H(Fragment=1)        -1.75247   1.77247   0.01 
 H(Fragment=1)         1.77247  -1.75247   0.01 
 C(Fragment=1)        -0.98447   1.00447   2.47332 
 C(Fragment=1)        -0.50395   0.52395   3.68128 
 C(Fragment=1)         1.00447  -0.98447   2.47332 
 C(Fragment=1)         0.52395  -0.50395   3.68128 
 H(Fragment=1)        -1.75219   1.77219   2.47393 
 H(Fragment=1)         1.77219  -1.75219   2.47393 
 C(Fragment=1)        -0.98612   1.00612   4.94359 
 C(Fragment=1)        -0.49632   0.51632   6.11636 
 C(Fragment=1)         1.00612  -0.98612   4.94359 
 C(Fragment=1)         0.51632  -0.49632   6.11636 
 H(Fragment=1)        -1.75336   1.77336   4.94326 
 H(Fragment=1)        -0.87056   0.89056   7.06253 
 H(Fragment=1)         0.89056  -0.87056   7.06253 
 H(Fragment=1)         1.77336  -1.75336   4.94326 
 C(Fragment=2)         2.52395   5.02395  -3.66128 
 C(Fragment=2)         1.49605   3.99605  -3.66128 
 C(Fragment=2)         3.00612   5.50612  -4.92359 
 C(Fragment=2)         1.01387   3.51387  -4.92359 
 C(Fragment=2)         2.51632   5.01632  -6.09636 
 C(Fragment=2)         1.50368   4.00368  -6.09636 
 C(Fragment=2)         3.00447   5.50447  -2.45332 
 C(Fragment=2)         2.52449   5.02449  -1.21403 
 C(Fragment=2)         1.01553   3.51553  -2.45332 
 C(Fragment=2)         1.49551   3.99551  -1.21403 
 H(Fragment=2)         3.77336   6.27336  -4.92326 
 H(Fragment=2)         3.77219   6.27219  -2.45393 
 H(Fragment=2)         0.24781   2.74781  -2.45393 
 H(Fragment=2)         0.24664   2.74664  -4.92326 
 H(Fragment=2)         1.12944   3.62944  -7.04253 
 H(Fragment=2)         2.89056   5.39056  -7.04253 
 C(Fragment=2)         3.00482   5.50482   0.01 
 C(Fragment=2)         2.52449   5.02449   1.23403 
 C(Fragment=2)         1.01518   3.51518   0.01 
 C(Fragment=2)         1.49551   3.99551   1.23403 
 H(Fragment=2)         3.77247   6.27247   0.01 
 H(Fragment=2)         0.24753   2.74753   0.01 
 C(Fragment=2)         3.00447   5.50447   2.47332 
 C(Fragment=2)         2.52395   5.02395   3.68128 
 C(Fragment=2)         1.01553   3.51553   2.47332 
 C(Fragment=2)         1.49605   3.99605   3.68128 
 H(Fragment=2)         3.77219   6.27219   2.47393 
 H(Fragment=2)         0.24781   2.74781   2.47393 
 C(Fragment=2)         3.00612   5.50612   4.94359 
 C(Fragment=2)         2.51632   5.01632   6.11636 
 C(Fragment=2)         1.01388   3.51388   4.94359 
 C(Fragment=2)         1.50368   4.00368   6.11636 
 H(Fragment=2)         3.77336   6.27336   4.94326 
 H(Fragment=2)         2.89056   5.39056   7.06253 
 H(Fragment=2)         1.12944   3.62944   7.06253 
 H(Fragment=2)         0.24664   2.74664   4.94326 
 
 ITRead=  0  0  0  0  0  0  0  0  0  0  0  0  0  0  0  0  0  0  0  0
 ITRead=  0  0  0  0  0  0  0  0  0  0  0  0  0  0  0  0  0  0  0  0
 ITRead=  0  0  0  0  0  0  0  0  0  0  0  0  0  0  0  0  0  0  0  0
 ITRead=  0  0  0  0  0  0  0  0  0  0  0  0
 MicOpt= -1 -1 -1 -1 -1 -1 -1 -1 -1 -1 -1 -1 -1 -1 -1 -1 -1 -1 -1 -1
 MicOpt= -1 -1 -1 -1 -1 -1 -1 -1 -1 -1 -1 -1 -1 -1 -1 -1 -1 -1 -1 -1
 MicOpt= -1 -1 -1 -1 -1 -1 -1 -1 -1 -1 -1 -1 -1 -1 -1 -1 -1 -1 -1 -1
 MicOpt= -1 -1 -1 -1 -1 -1 -1 -1 -1 -1 -1 -1
 NAtoms=     72 NQM=       72 NQMF=       0 NMMI=      0 NMMIF=      0
                NMic=       0 NMicF=      0.
                    Isotopes and Nuclear Properties:
 (Nuclear quadrupole moments (NQMom) in fm**2, nuclear magnetic moments (NMagM)
  in nuclear magnetons)

  Atom         1           2           3           4           5           6           7           8           9          10
 IAtWgt=          12          12          12          12          12          12          12          12          12          12
 AtmWgt=  12.0000000  12.0000000  12.0000000  12.0000000  12.0000000  12.0000000  12.0000000  12.0000000  12.0000000  12.0000000
 NucSpn=           0           0           0           0           0           0           0           0           0           0
 AtZEff=   0.0000000   0.0000000   0.0000000   0.0000000   0.0000000   0.0000000   0.0000000   0.0000000   0.0000000   0.0000000
 NQMom=    0.0000000   0.0000000   0.0000000   0.0000000   0.0000000   0.0000000   0.0000000   0.0000000   0.0000000   0.0000000
 NMagM=    0.0000000   0.0000000   0.0000000   0.0000000   0.0000000   0.0000000   0.0000000   0.0000000   0.0000000   0.0000000
 AtZNuc=   6.0000000   6.0000000   6.0000000   6.0000000   6.0000000   6.0000000   6.0000000   6.0000000   6.0000000   6.0000000

  Atom        11          12          13          14          15          16          17          18          19          20
 IAtWgt=           1           1           1           1           1           1          12          12          12          12
 AtmWgt=   1.0078250   1.0078250   1.0078250   1.0078250   1.0078250   1.0078250  12.0000000  12.0000000  12.0000000  12.0000000
 NucSpn=           1           1           1           1           1           1           0           0           0           0
 AtZEff=   0.0000000   0.0000000   0.0000000   0.0000000   0.0000000   0.0000000   0.0000000   0.0000000   0.0000000   0.0000000
 NQMom=    0.0000000   0.0000000   0.0000000   0.0000000   0.0000000   0.0000000   0.0000000   0.0000000   0.0000000   0.0000000
 NMagM=    2.7928460   2.7928460   2.7928460   2.7928460   2.7928460   2.7928460   0.0000000   0.0000000   0.0000000   0.0000000
 AtZNuc=   1.0000000   1.0000000   1.0000000   1.0000000   1.0000000   1.0000000   6.0000000   6.0000000   6.0000000   6.0000000

  Atom        21          22          23          24          25          26          27          28          29          30
 IAtWgt=           1           1          12          12          12          12           1           1          12          12
 AtmWgt=   1.0078250   1.0078250  12.0000000  12.0000000  12.0000000  12.0000000   1.0078250   1.0078250  12.0000000  12.0000000
 NucSpn=           1           1           0           0           0           0           1           1           0           0
 AtZEff=   0.0000000   0.0000000   0.0000000   0.0000000   0.0000000   0.0000000   0.0000000   0.0000000   0.0000000   0.0000000
 NQMom=    0.0000000   0.0000000   0.0000000   0.0000000   0.0000000   0.0000000   0.0000000   0.0000000   0.0000000   0.0000000
 NMagM=    2.7928460   2.7928460   0.0000000   0.0000000   0.0000000   0.0000000   2.7928460   2.7928460   0.0000000   0.0000000
 AtZNuc=   1.0000000   1.0000000   6.0000000   6.0000000   6.0000000   6.0000000   1.0000000   1.0000000   6.0000000   6.0000000

  Atom        31          32          33          34          35          36          37          38          39          40
 IAtWgt=          12          12           1           1           1           1          12          12          12          12
 AtmWgt=  12.0000000  12.0000000   1.0078250   1.0078250   1.0078250   1.0078250  12.0000000  12.0000000  12.0000000  12.0000000
 NucSpn=           0           0           1           1           1           1           0           0           0           0
 AtZEff=   0.0000000   0.0000000   0.0000000   0.0000000   0.0000000   0.0000000   0.0000000   0.0000000   0.0000000   0.0000000
 NQMom=    0.0000000   0.0000000   0.0000000   0.0000000   0.0000000   0.0000000   0.0000000   0.0000000   0.0000000   0.0000000
 NMagM=    0.0000000   0.0000000   2.7928460   2.7928460   2.7928460   2.7928460   0.0000000   0.0000000   0.0000000   0.0000000
 AtZNuc=   6.0000000   6.0000000   1.0000000   1.0000000   1.0000000   1.0000000   6.0000000   6.0000000   6.0000000   6.0000000

  Atom        41          42          43          44          45          46          47          48          49          50
 IAtWgt=          12          12          12          12          12          12           1           1           1           1
 AtmWgt=  12.0000000  12.0000000  12.0000000  12.0000000  12.0000000  12.0000000   1.0078250   1.0078250   1.0078250   1.0078250
 NucSpn=           0           0           0           0           0           0           1           1           1           1
 AtZEff=   0.0000000   0.0000000   0.0000000   0.0000000   0.0000000   0.0000000   0.0000000   0.0000000   0.0000000   0.0000000
 NQMom=    0.0000000   0.0000000   0.0000000   0.0000000   0.0000000   0.0000000   0.0000000   0.0000000   0.0000000   0.0000000
 NMagM=    0.0000000   0.0000000   0.0000000   0.0000000   0.0000000   0.0000000   2.7928460   2.7928460   2.7928460   2.7928460
 AtZNuc=   6.0000000   6.0000000   6.0000000   6.0000000   6.0000000   6.0000000   1.0000000   1.0000000   1.0000000   1.0000000

  Atom        51          52          53          54          55          56          57          58          59          60
 IAtWgt=           1           1          12          12          12          12           1           1          12          12
 AtmWgt=   1.0078250   1.0078250  12.0000000  12.0000000  12.0000000  12.0000000   1.0078250   1.0078250  12.0000000  12.0000000
 NucSpn=           1           1           0           0           0           0           1           1           0           0
 AtZEff=   0.0000000   0.0000000   0.0000000   0.0000000   0.0000000   0.0000000   0.0000000   0.0000000   0.0000000   0.0000000
 NQMom=    0.0000000   0.0000000   0.0000000   0.0000000   0.0000000   0.0000000   0.0000000   0.0000000   0.0000000   0.0000000
 NMagM=    2.7928460   2.7928460   0.0000000   0.0000000   0.0000000   0.0000000   2.7928460   2.7928460   0.0000000   0.0000000
 AtZNuc=   1.0000000   1.0000000   6.0000000   6.0000000   6.0000000   6.0000000   1.0000000   1.0000000   6.0000000   6.0000000

  Atom        61          62          63          64          65          66          67          68          69          70
 IAtWgt=          12          12           1           1          12          12          12          12           1           1
 AtmWgt=  12.0000000  12.0000000   1.0078250   1.0078250  12.0000000  12.0000000  12.0000000  12.0000000   1.0078250   1.0078250
 NucSpn=           0           0           1           1           0           0           0           0           1           1
 AtZEff=   0.0000000   0.0000000   0.0000000   0.0000000   0.0000000   0.0000000   0.0000000   0.0000000   0.0000000   0.0000000
 NQMom=    0.0000000   0.0000000   0.0000000   0.0000000   0.0000000   0.0000000   0.0000000   0.0000000   0.0000000   0.0000000
 NMagM=    0.0000000   0.0000000   2.7928460   2.7928460   0.0000000   0.0000000   0.0000000   0.0000000   2.7928460   2.7928460
 AtZNuc=   6.0000000   6.0000000   1.0000000   1.0000000   6.0000000   6.0000000   6.0000000   6.0000000   1.0000000   1.0000000

  Atom        71          72
 IAtWgt=           1           1
 AtmWgt=   1.0078250   1.0078250
 NucSpn=           1           1
 AtZEff=   0.0000000   0.0000000
 NQMom=    0.0000000   0.0000000
 NMagM=    2.7928460   2.7928460
 AtZNuc=   1.0000000   1.0000000
 Leave Link  101 at Wed Sep 27 16:37:36 2023, MaxMem=  3221225472 cpu:               3.6 elap:               0.2
 (Enter /home/center/opt/aarch64/apps/gaussian16/c01/g16/l202.exe)
 Stoichiometry    C44H28
 Framework group  CS[SG(C4H4),X(C40H24)]
 Deg. of freedom   109
 Full point group                 CS      NOp   2
 Largest Abelian subgroup         CS      NOp   2
 Largest concise Abelian subgroup CS      NOp   2
                         Standard orientation:                         
 ---------------------------------------------------------------------
 Center     Atomic      Atomic             Coordinates (Angstroms)
 Number     Number       Type             X           Y           Z
 ---------------------------------------------------------------------
      1          6           0       -0.157051   -2.298097    3.671276
      2          6           0       -1.610716   -2.298097    3.671276
      3          6           0        0.524850   -2.298097    4.933593
      4          6           0       -2.292617   -2.298097    4.933593
      5          6           0       -0.167837   -2.298097    6.106357
      6          6           0       -1.599930   -2.298097    6.106357
      7          6           0        0.522507   -2.298097    2.463318
      8          6           0       -0.156287   -2.298097    1.224029
      9          6           0       -2.290274   -2.298097    2.463317
     10          6           0       -1.611480   -2.298097    1.224029
     11          1           0        1.609878   -2.298097    4.933260
     12          1           0        1.608225   -2.298097    2.463929
     13          1           0       -3.375991   -2.298097    2.463929
     14          1           0       -3.377645   -2.298097    4.933260
     15          1           0       -2.129179   -2.298097    7.052528
     16          1           0        0.361412   -2.298097    7.052528
     17          6           0        0.523002   -2.298097    0.000000
     18          6           0       -0.156287   -2.298097   -1.224029
     19          6           0       -2.290769   -2.298097    0.000000
     20          6           0       -1.611480   -2.298097   -1.224029
     21          1           0        1.608626   -2.298097    0.000000
     22          1           0       -3.376391   -2.298097    0.000000
     23          6           0        0.522507   -2.298097   -2.463318
     24          6           0       -0.157051   -2.298097   -3.671276
     25          6           0       -2.290274   -2.298097   -2.463317
     26          6           0       -1.610716   -2.298097   -3.671276
     27          1           0        1.608225   -2.298097   -2.463929
     28          1           0       -3.375991   -2.298097   -2.463929
     29          6           0        0.524850   -2.298097   -4.933593
     30          6           0       -0.167837   -2.298097   -6.106357
     31          6           0       -2.292617   -2.298097   -4.933593
     32          6           0       -1.599930   -2.298097   -6.106357
     33          1           0        1.609878   -2.298097   -4.933260
     34          1           0        0.361412   -2.298097   -7.052528
     35          1           0       -2.129179   -2.298097   -7.052528
     36          1           0       -3.377645   -2.298097   -4.933260
     37          6           0        0.883884    3.024929    3.671276
     38          6           0        0.883884    1.571265    3.671276
     39          6           0        0.883884    3.706830    4.933593
     40          6           0        0.883884    0.889363    4.933593
     41          6           0        0.883884    3.014144    6.106357
     42          6           0        0.883884    1.582050    6.106357
     43          6           0        0.883884    3.704488    2.463318
     44          6           0        0.883884    3.025694    1.224029
     45          6           0        0.883884    0.891706    2.463317
     46          6           0        0.883884    1.570500    1.224029
     47          1           0        0.883884    4.791859    4.933260
     48          1           0        0.883884    4.790205    2.463929
     49          1           0        0.883884   -0.194010    2.463929
     50          1           0        0.883884   -0.195665    4.933260
     51          1           0        0.883884    1.052802    7.052528
     52          1           0        0.883884    3.543392    7.052528
     53          6           0        0.883884    3.704983    0.000000
     54          6           0        0.883884    3.025694   -1.224029
     55          6           0        0.883884    0.891211    0.000000
     56          6           0        0.883884    1.570500   -1.224029
     57          1           0        0.883884    4.790606    0.000000
     58          1           0        0.883884   -0.194410    0.000000
     59          6           0        0.883884    3.704488   -2.463318
     60          6           0        0.883884    3.024929   -3.671276
     61          6           0        0.883884    0.891706   -2.463317
     62          6           0        0.883884    1.571265   -3.671276
     63          1           0        0.883884    4.790205   -2.463929
     64          1           0        0.883884   -0.194010   -2.463929
     65          6           0        0.883884    3.706830   -4.933593
     66          6           0        0.883884    3.014144   -6.106357
     67          6           0        0.883884    0.889363   -4.933593
     68          6           0        0.883884    1.582050   -6.106357
     69          1           0        0.883884    4.791859   -4.933260
     70          1           0        0.883884    3.543392   -7.052528
     71          1           0        0.883884    1.052802   -7.052528
     72          1           0        0.883884   -0.195665   -4.933260
 ---------------------------------------------------------------------
 Rotational constants (GHZ):           0.1221902           0.0563744           0.0409652
 Leave Link  202 at Wed Sep 27 16:37:39 2023, MaxMem=  3221225472 cpu:               0.6 elap:               0.1
 (Enter /home/center/opt/aarch64/apps/gaussian16/c01/g16/l122.exe)
 Counterpoise: doing full-system calculation.
 Leave Link  122 at Wed Sep 27 16:37:42 2023, MaxMem=  3221225472 cpu:               0.2 elap:               0.0
 (Enter /home/center/opt/aarch64/apps/gaussian16/c01/g16/l301.exe)
 Standard basis: 6-311G(d,p) (5D, 7F)
 Ernie: Thresh=  0.10000D-02 Tol=  0.10000D-05 Strict=F.
 There are   528 symmetry adapted cartesian basis functions of A'  symmetry.
 There are   476 symmetry adapted cartesian basis functions of A"  symmetry.
 There are   504 symmetry adapted basis functions of A'  symmetry.
 There are   456 symmetry adapted basis functions of A"  symmetry.
   960 basis functions,  1632 primitive gaussians,  1004 cartesian basis functions
   146 alpha electrons      146 beta electrons
       nuclear repulsion energy      4718.1220773345 Hartrees.
 IExCor=  402 DFT=T Ex+Corr=B3LYP ExCW=0 ScaHFX=  0.200000
 ScaDFX=  0.800000  0.720000  1.000000  0.810000 ScalE2=  1.000000  1.000000
 IRadAn=      5 IRanWt=     -1 IRanGd=            0 ICorTp=0 IEmpDi=131
 NAtoms=   72 NActive=   72 NUniq=   40 SFac= 3.24D+00 NAtFMM=   60 NAOKFM=T Big=F
 Integral buffers will be    131072 words long.
 Raffenetti 2 integral format.
 Two-electron integral symmetry is turned on.
 R6Disp:  Grimme-D3 Dispersion energy=       -0.0882881567 Hartrees.
 Nuclear repulsion after empirical dispersion term =     4718.0337891778 Hartrees.
 Leave Link  301 at Wed Sep 27 16:37:44 2023, MaxMem=  3221225472 cpu:               4.5 elap:               0.2
 (Enter /home/center/opt/aarch64/apps/gaussian16/c01/g16/l302.exe)
 NPDir=0 NMtPBC=     1 NCelOv=     1 NCel=       1 NClECP=     1 NCelD=      1
         NCelK=      1 NCelE2=     1 NClLst=     1 CellRange=     0.0.
 One-electron integrals computed using PRISM.
 One-electron integral symmetry used in STVInt
 NBasis=   960 RedAO= T EigKep=  3.53D-05  NBF=   504   456
 NBsUse=   960 1.00D-06 EigRej= -1.00D+00 NBFU=   504   456
 Precomputing XC quadrature grid using
 IXCGrd= 4 IRadAn=           5 IRanWt=          -1 IRanGd=           0 AccXCQ= 0.00D+00.
 Generated NRdTot=       0 NPtTot=           0 NUsed=           0 NTot=          32
 NSgBfM=   990   990   990   990   990 MxSgAt=    72 MxSgA2=    72.
 Leave Link  302 at Wed Sep 27 16:37:49 2023, MaxMem=  3221225472 cpu:              65.2 elap:               2.0
 (Enter /home/center/opt/aarch64/apps/gaussian16/c01/g16/l303.exe)
 DipDrv:  MaxL=1.
 Leave Link  303 at Wed Sep 27 16:37:51 2023, MaxMem=  3221225472 cpu:              14.0 elap:               0.5
 (Enter /home/center/opt/aarch64/apps/gaussian16/c01/g16/l401.exe)
 ExpMin= 1.03D-01 ExpMax= 4.56D+03 ExpMxC= 6.82D+02 IAcc=3 IRadAn=         5 AccDes= 0.00D+00
 Harris functional with IExCor=  402 and IRadAn=       5 diagonalized for initial guess.
 HarFok:  IExCor=  402 AccDes= 0.00D+00 IRadAn=         5 IDoV= 1 UseB2=F ITyADJ=14
 ICtDFT=  3500011 ScaDFX=  1.000000  1.000000  1.000000  1.000000
 FoFCou: FMM=F IPFlag=           0 FMFlag=      100000 FMFlg1=        2000
         NFxFlg=           0 DoJE=T BraDBF=F KetDBF=T FulRan=T
         wScrn=  0.000000 ICntrl=       500 IOpCl=  0 I1Cent=   200000004 NGrid=           0
         NMat0=    1 NMatS0=      1 NMatT0=    0 NMatD0=    1 NMtDS0=    0 NMtDT0=    0
 Petite list used in FoFCou.
 Harris En= -1694.11504449296    
 JPrj=0 DoOrth=F DoCkMO=F.
 Initial guess orbital symmetries:
       Occupied  (A") (A') (A") (A') (A") (A') (A") (A') (A') (A")
                 (A") (A') (A") (A') (A") (A') (A") (A') (A') (A")
                 (A') (A") (A') (A") (A') (A') (A') (A') (A") (A')
                 (A") (A') (A") (A') (A") (A') (A") (A') (A") (A')
                 (A") (A') (A') (A") (A') (A') (A") (A") (A') (A')
                 (A") (A") (A') (A') (A') (A') (A") (A") (A') (A')
                 (A") (A") (A") (A") (A') (A') (A') (A') (A") (A")
                 (A") (A") (A') (A') (A") (A') (A") (A') (A') (A')
                 (A') (A') (A") (A") (A") (A") (A') (A") (A") (A')
                 (A') (A') (A") (A") (A') (A') (A') (A") (A') (A")
                 (A') (A") (A') (A") (A") (A') (A") (A') (A') (A")
                 (A") (A') (A') (A') (A") (A") (A") (A') (A') (A")
                 (A') (A") (A") (A') (A') (A') (A") (A") (A') (A')
                 (A") (A") (A') (A') (A") (A") (A') (A') (A') (A')
                 (A") (A") (A") (A") (A') (A')
       Virtual   (A') (A') (A") (A") (A") (A") (A') (A') (A') (A')
                 (A") (A") (A') (A') (A") (A") (A') (A") (A') (A')
                 (A') (A') (A") (A') (A") (A') (A") (A") (A') (A")
                 (A') (A") (A') (A") (A') (A") (A") (A') (A') (A")
                 (A') (A') (A") (A') (A') (A") (A") (A') (A') (A')
                 (A") (A') (A') (A') (A") (A') (A") (A') (A") (A")
                 (A") (A") (A') (A') (A") (A') (A") (A") (A") (A')
                 (A') (A") (A') (A") (A') (A') (A") (A") (A') (A")
                 (A') (A') (A") (A') (A") (A') (A') (A') (A") (A')
                 (A') (A") (A") (A") (A") (A') (A') (A") (A') (A')
                 (A") (A') (A") (A') (A') (A") (A") (A') (A') (A")
                 (A') (A") (A') (A") (A') (A') (A') (A") (A') (A")
                 (A') (A") (A") (A') (A') (A") (A") (A") (A') (A')
                 (A") (A") (A') (A") (A') (A") (A') (A") (A') (A')
                 (A') (A") (A") (A') (A") (A') (A') (A") (A') (A')
                 (A') (A") (A') (A") (A") (A') (A") (A") (A') (A")
                 (A') (A') (A") (A') (A') (A") (A") (A') (A') (A")
                 (A') (A') (A") (A') (A") (A") (A') (A") (A') (A")
                 (A') (A") (A') (A') (A") (A') (A") (A') (A') (A")
                 (A") (A') (A") (A') (A') (A") (A') (A') (A") (A")
                 (A') (A") (A") (A') (A') (A") (A') (A") (A') (A")
                 (A') (A') (A") (A") (A') (A") (A") (A") (A') (A')
                 (A') (A') (A") (A") (A') (A") (A') (A") (A') (A")
                 (A') (A') (A') (A") (A") (A') (A") (A') (A") (A')
                 (A") (A") (A') (A") (A') (A') (A') (A') (A") (A')
                 (A") (A") (A') (A") (A') (A") (A') (A") (A') (A")
                 (A") (A') (A') (A") (A') (A") (A") (A') (A') (A")
                 (A") (A') (A') (A") (A") (A') (A") (A") (A') (A')
                 (A") (A') (A") (A') (A') (A') (A") (A') (A") (A")
                 (A') (A") (A') (A") (A") (A') (A") (A") (A') (A")
                 (A') (A') (A") (A') (A') (A") (A') (A") (A') (A")
                 (A') (A') (A") (A") (A") (A") (A') (A') (A') (A')
                 (A') (A") (A") (A') (A') (A") (A') (A") (A") (A')
                 (A") (A") (A') (A") (A') (A') (A") (A') (A") (A')
                 (A") (A') (A') (A") (A') (A") (A') (A") (A') (A')
                 (A") (A') (A") (A') (A') (A') (A") (A") (A') (A')
                 (A") (A") (A') (A") (A') (A") (A") (A") (A') (A")
                 (A') (A") (A') (A") (A") (A') (A") (A') (A') (A')
                 (A") (A') (A') (A') (A') (A") (A") (A') (A') (A")
                 (A') (A") (A") (A') (A") (A") (A') (A") (A') (A')
                 (A") (A') (A") (A') (A') (A") (A") (A') (A") (A')
                 (A') (A") (A') (A") (A') (A') (A') (A") (A') (A")
                 (A') (A') (A') (A") (A") (A") (A') (A') (A") (A')
                 (A") (A") (A") (A") (A") (A') (A") (A') (A') (A")
                 (A') (A") (A') (A') (A") (A') (A") (A') (A") (A")
                 (A') (A") (A') (A") (A') (A') (A") (A') (A') (A")
                 (A') (A") (A") (A') (A") (A") (A') (A") (A') (A")
                 (A') (A") (A') (A') (A") (A') (A") (A') (A') (A')
                 (A") (A") (A") (A') (A') (A") (A") (A") (A') (A")
                 (A') (A") (A") (A') (A") (A") (A') (A") (A') (A')
                 (A") (A') (A") (A') (A') (A") (A') (A') (A") (A')
                 (A") (A') (A") (A') (A") (A") (A') (A') (A") (A')
                 (A") (A') (A") (A") (A') (A') (A") (A') (A') (A")
                 (A') (A") (A") (A') (A") (A") (A') (A") (A') (A')
                 (A") (A') (A') (A") (A") (A") (A') (A") (A') (A")
                 (A") (A') (A") (A') (A') (A') (A") (A') (A") (A')
                 (A") (A') (A') (A") (A') (A") (A') (A") (A') (A')
                 (A") (A") (A") (A') (A") (A') (A") (A') (A") (A')
                 (A') (A') (A") (A') (A") (A') (A") (A') (A") (A')
                 (A') (A") (A') (A') (A') (A") (A") (A') (A") (A')
                 (A') (A") (A") (A') (A') (A") (A") (A") (A') (A')
                 (A') (A") (A') (A") (A') (A") (A") (A") (A") (A')
                 (A") (A') (A') (A') (A') (A") (A") (A') (A') (A')
                 (A") (A') (A") (A') (A") (A") (A') (A") (A") (A')
                 (A") (A") (A') (A') (A') (A') (A") (A') (A") (A')
                 (A') (A') (A") (A') (A") (A") (A') (A') (A") (A")
                 (A') (A") (A') (A") (A') (A') (A") (A') (A") (A')
                 (A") (A") (A') (A') (A") (A') (A") (A') (A") (A')
                 (A") (A') (A') (A") (A') (A") (A") (A') (A") (A')
                 (A') (A") (A") (A') (A") (A') (A') (A") (A") (A')
                 (A") (A') (A") (A') (A') (A") (A') (A") (A') (A")
                 (A") (A') (A") (A") (A') (A') (A') (A") (A') (A")
                 (A') (A') (A") (A') (A") (A") (A') (A') (A") (A")
                 (A') (A') (A") (A') (A") (A') (A') (A") (A') (A")
                 (A') (A") (A') (A") (A') (A') (A") (A') (A') (A')
                 (A") (A") (A') (A") (A') (A") (A') (A') (A") (A")
                 (A") (A') (A") (A') (A") (A") (A') (A") (A') (A")
                 (A') (A') (A") (A") (A') (A') (A') (A') (A") (A")
                 (A") (A") (A') (A') (A") (A') (A") (A') (A') (A')
                 (A") (A") (A") (A") (A') (A') (A') (A') (A") (A")
                 (A') (A') (A") (A") (A') (A") (A') (A') (A") (A')
                 (A') (A") (A') (A")
 The electronic state of the initial guess is 1-A'.
 Leave Link  401 at Wed Sep 27 16:37:57 2023, MaxMem=  3221225472 cpu:             106.2 elap:               2.7
 (Enter /home/center/opt/aarch64/apps/gaussian16/c01/g16/l502.exe)
 Integral symmetry usage will be decided dynamically.
 Closed shell SCF:
 Using DIIS extrapolation, IDIIS=  1040.
 NGot=  3221225472 LenX=  3219153746 LenY=  3218144726
 Requested convergence on RMS density matrix=1.00D-08 within 128 cycles.
 Requested convergence on MAX density matrix=1.00D-06.
 Requested convergence on             energy=1.00D-06.
 No special actions if energy rises.
 Fock matrices will be formed incrementally for  20 cycles.
 Integral accuracy reduced to 1.0D-05 until final iterations.

 Cycle   1  Pass 0  IDiag  1:
 FoFJK:  IHMeth= 1 ICntrl=       0 DoSepK=F KAlg= 0 I1Cent=           0 FoldK=F
 IRaf= 570000000 NMat=       1 IRICut=       1 DoRegI=T DoRafI=F ISym2E= 1 IDoP0=0 IntGTp=1.
 FoFCou: FMM=F IPFlag=           0 FMFlag=      100000 FMFlg1=        2000
         NFxFlg=           0 DoJE=F BraDBF=F KetDBF=F FulRan=T
         wScrn=  0.000000 ICntrl=         0 IOpCl=  0 I1Cent=           0 NGrid=           0
         NMat0=    1 NMatS0=      1 NMatT0=    0 NMatD0=    1 NMtDS0=    0 NMtDT0=    0
 Petite list used in FoFCou.
 E= -1693.15903779567    
 DIIS: error= 4.05D-02 at cycle   1 NSaved=   1.
 NSaved= 1 IEnMin= 1 EnMin= -1693.15903779567     IErMin= 1 ErrMin= 4.05D-02
 ErrMax= 4.05D-02  0.00D+00 EMaxC= 1.00D-01 BMatC= 8.95D-01 BMatP= 8.95D-01
 IDIUse=3 WtCom= 5.95D-01 WtEn= 4.05D-01
 Coeff-Com:  0.100D+01
 Coeff-En:   0.100D+01
 Coeff:      0.100D+01
 Gap=     0.055 Goal=   None    Shift=    0.000
 GapD=    0.055 DampG=0.500 DampE=0.500 DampFc=0.2500 IDamp=-1.
 Damping current iteration by 2.50D-01
 RMSDP=1.76D-03 MaxDP=8.47D-02              OVMax= 1.56D-01

 Cycle   2  Pass 0  IDiag  1:
 RMSU=  4.27D-04    CP:  9.83D-01
 E= -1693.46454693197     Delta-E=       -0.305509136303 Rises=F Damp=T
 DIIS: error= 2.35D-02 at cycle   2 NSaved=   2.
 NSaved= 2 IEnMin= 2 EnMin= -1693.46454693197     IErMin= 2 ErrMin= 2.35D-02
 ErrMax= 2.35D-02  0.00D+00 EMaxC= 1.00D-01 BMatC= 2.99D-01 BMatP= 8.95D-01
 IDIUse=3 WtCom= 7.65D-01 WtEn= 2.35D-01
 Coeff-Com: -0.122D+01 0.222D+01
 Coeff-En:   0.000D+00 0.100D+01
 Coeff:     -0.930D+00 0.193D+01
 Gap=     0.057 Goal=   None    Shift=    0.000
 RMSDP=7.25D-04 MaxDP=3.38D-02 DE=-3.06D-01 OVMax= 1.31D-01

 Cycle   3  Pass 0  IDiag  1:
 RMSU=  5.24D-04    CP:  9.57D-01  2.11D+00
 E= -1694.02320005642     Delta-E=       -0.558653124449 Rises=F Damp=F
 DIIS: error= 7.62D-03 at cycle   3 NSaved=   3.
 NSaved= 3 IEnMin= 3 EnMin= -1694.02320005642     IErMin= 3 ErrMin= 7.62D-03
 ErrMax= 7.62D-03  0.00D+00 EMaxC= 1.00D-01 BMatC= 1.32D-02 BMatP= 2.99D-01
 IDIUse=3 WtCom= 9.24D-01 WtEn= 7.62D-02
 Coeff-Com: -0.319D+00 0.618D+00 0.701D+00
 Coeff-En:   0.000D+00 0.000D+00 0.100D+01
 Coeff:     -0.294D+00 0.570D+00 0.724D+00
 Gap=     0.064 Goal=   None    Shift=    0.000
 RMSDP=2.82D-04 MaxDP=1.81D-02 DE=-5.59D-01 OVMax= 1.54D-01

 Cycle   4  Pass 0  IDiag  1:
 RMSU=  2.33D-04    CP:  9.58D-01  2.08D+00  6.99D-01
 E= -1694.01506116993     Delta-E=        0.008138886486 Rises=F Damp=F
 DIIS: error= 1.29D-02 at cycle   4 NSaved=   4.
 NSaved= 4 IEnMin= 3 EnMin= -1694.02320005642     IErMin= 3 ErrMin= 7.62D-03
 ErrMax= 1.29D-02  0.00D+00 EMaxC= 1.00D-01 BMatC= 1.85D-02 BMatP= 1.32D-02
 IDIUse=2 WtCom= 0.00D+00 WtEn= 1.00D+00
 Coeff-En:   0.000D+00 0.000D+00 0.589D+00 0.411D+00
 Coeff:      0.000D+00 0.000D+00 0.589D+00 0.411D+00
 Gap=     0.059 Goal=   None    Shift=    0.000
 RMSDP=1.64D-04 MaxDP=1.24D-02 DE= 8.14D-03 OVMax= 1.18D-01

 Cycle   5  Pass 0  IDiag  1:
 RMSU=  9.24D-05    CP:  9.58D-01  2.10D+00  7.49D-01  4.30D-01
 E= -1694.03603327920     Delta-E=       -0.020972109266 Rises=F Damp=F
 DIIS: error= 2.97D-03 at cycle   5 NSaved=   5.
 NSaved= 5 IEnMin= 5 EnMin= -1694.03603327920     IErMin= 5 ErrMin= 2.97D-03
 ErrMax= 2.97D-03  0.00D+00 EMaxC= 1.00D-01 BMatC= 1.35D-03 BMatP= 1.32D-02
 IDIUse=3 WtCom= 9.70D-01 WtEn= 2.97D-02
 Coeff-Com: -0.181D-01 0.414D-01 0.293D+00 0.232D+00 0.451D+00
 Coeff-En:   0.000D+00 0.000D+00 0.000D+00 0.000D+00 0.100D+01
 Coeff:     -0.175D-01 0.401D-01 0.285D+00 0.226D+00 0.467D+00
 Gap=     0.060 Goal=   None    Shift=    0.000
 RMSDP=6.31D-05 MaxDP=3.78D-03 DE=-2.10D-02 OVMax= 3.16D-02

 Cycle   6  Pass 0  IDiag  1:
 RMSU=  3.58D-05    CP:  9.58D-01  2.09D+00  7.88D-01  4.88D-01  5.03D-01
 E= -1694.03695958455     Delta-E=       -0.000926305351 Rises=F Damp=F
 DIIS: error= 1.63D-03 at cycle   6 NSaved=   6.
 NSaved= 6 IEnMin= 6 EnMin= -1694.03695958455     IErMin= 6 ErrMin= 1.63D-03
 ErrMax= 1.63D-03  0.00D+00 EMaxC= 1.00D-01 BMatC= 4.36D-04 BMatP= 1.35D-03
 IDIUse=3 WtCom= 9.84D-01 WtEn= 1.63D-02
 Coeff-Com:  0.280D-03 0.150D-02 0.130D+00 0.106D+00 0.359D+00 0.404D+00
 Coeff-En:   0.000D+00 0.000D+00 0.000D+00 0.000D+00 0.305D+00 0.695D+00
 Coeff:      0.275D-03 0.148D-02 0.128D+00 0.104D+00 0.358D+00 0.408D+00
 Gap=     0.060 Goal=   None    Shift=    0.000
 RMSDP=2.90D-05 MaxDP=1.62D-03 DE=-9.26D-04 OVMax= 1.33D-02

 Cycle   7  Pass 0  IDiag  1:
 RMSU=  1.36D-05    CP:  9.58D-01  2.09D+00  7.89D-01  4.69D-01  6.07D-01
                    CP:  3.48D-01
 E= -1694.03746186574     Delta-E=       -0.000502281186 Rises=F Damp=F
 DIIS: error= 4.31D-04 at cycle   7 NSaved=   7.
 NSaved= 7 IEnMin= 7 EnMin= -1694.03746186574     IErMin= 7 ErrMin= 4.31D-04
 ErrMax= 4.31D-04  0.00D+00 EMaxC= 1.00D-01 BMatC= 3.64D-05 BMatP= 4.36D-04
 IDIUse=3 WtCom= 9.96D-01 WtEn= 4.31D-03
 Coeff-Com:  0.269D-02-0.401D-02 0.647D-01 0.521D-01 0.209D+00 0.286D+00
 Coeff-Com:  0.390D+00
 Coeff-En:   0.000D+00 0.000D+00 0.000D+00 0.000D+00 0.000D+00 0.489D-01
 Coeff-En:   0.951D+00
 Coeff:      0.267D-02-0.399D-02 0.644D-01 0.519D-01 0.208D+00 0.285D+00
 Coeff:      0.392D+00
 Gap=     0.060 Goal=   None    Shift=    0.000
 RMSDP=7.68D-06 MaxDP=5.19D-04 DE=-5.02D-04 OVMax= 4.31D-03

 Initial convergence to 1.0D-05 achieved.  Increase integral accuracy.
 Cycle   8  Pass 1  IDiag  1:
 E= -1694.03702767103     Delta-E=        0.000434194711 Rises=F Damp=F
 DIIS: error= 9.49D-04 at cycle   1 NSaved=   1.
 NSaved= 1 IEnMin= 1 EnMin= -1694.03702767103     IErMin= 1 ErrMin= 9.49D-04
 ErrMax= 9.49D-04  0.00D+00 EMaxC= 1.00D-01 BMatC= 5.18D-05 BMatP= 5.18D-05
 IDIUse=3 WtCom= 9.91D-01 WtEn= 9.49D-03
 Coeff-Com:  0.100D+01
 Coeff-En:   0.100D+01
 Coeff:      0.100D+01
 Gap=     0.060 Goal=   None    Shift=    0.000
 RMSDP=7.68D-06 MaxDP=5.19D-04 DE= 4.34D-04 OVMax= 3.36D-03

 Cycle   9  Pass 1  IDiag  1:
 RMSU=  3.40D-04    CP:  9.98D-01
 E= -1694.03706770079     Delta-E=       -0.000040029768 Rises=F Damp=F
 DIIS: error= 2.78D-04 at cycle   2 NSaved=   2.
 NSaved= 2 IEnMin= 2 EnMin= -1694.03706770079     IErMin= 2 ErrMin= 2.78D-04
 ErrMax= 2.78D-04  0.00D+00 EMaxC= 1.00D-01 BMatC= 8.39D-06 BMatP= 5.18D-05
 IDIUse=3 WtCom= 9.97D-01 WtEn= 2.78D-03
 Coeff-Com:  0.171D+00 0.829D+00
 Coeff-En:   0.000D+00 0.100D+01
 Coeff:      0.170D+00 0.830D+00
 Gap=     0.060 Goal=   None    Shift=    0.000
 RMSDP=1.06D-05 MaxDP=8.44D-04 DE=-4.00D-05 OVMax= 7.51D-03

 Cycle  10  Pass 1  IDiag  1:
 RMSU=  1.03D-05    CP:  9.97D-01  1.01D+00
 E= -1694.03703269654     Delta-E=        0.000035004255 Rises=F Damp=F
 DIIS: error= 6.27D-04 at cycle   3 NSaved=   3.
 NSaved= 3 IEnMin= 2 EnMin= -1694.03706770079     IErMin= 2 ErrMin= 2.78D-04
 ErrMax= 6.27D-04  0.00D+00 EMaxC= 1.00D-01 BMatC= 3.62D-05 BMatP= 8.39D-06
 IDIUse=3 WtCom= 2.85D-01 WtEn= 7.15D-01
 Coeff-Com:  0.452D-03 0.676D+00 0.323D+00
 Coeff-En:   0.000D+00 0.744D+00 0.256D+00
 Coeff:      0.129D-03 0.725D+00 0.275D+00
 Gap=     0.060 Goal=   None    Shift=    0.000
 RMSDP=5.98D-06 MaxDP=4.68D-04 DE= 3.50D-05 OVMax= 4.44D-03

 Cycle  11  Pass 1  IDiag  1:
 RMSU=  1.42D-06    CP:  9.97D-01  1.01D+00  4.39D-01
 E= -1694.03707629223     Delta-E=       -0.000043595691 Rises=F Damp=F
 DIIS: error= 8.23D-05 at cycle   4 NSaved=   4.
 NSaved= 4 IEnMin= 4 EnMin= -1694.03707629223     IErMin= 4 ErrMin= 8.23D-05
 ErrMax= 8.23D-05  0.00D+00 EMaxC= 1.00D-01 BMatC= 1.43D-06 BMatP= 8.39D-06
 IDIUse=1 WtCom= 1.00D+00 WtEn= 0.00D+00
 Coeff-Com: -0.359D-02 0.456D+00 0.150D+00 0.397D+00
 Coeff:     -0.359D-02 0.456D+00 0.150D+00 0.397D+00
 Gap=     0.060 Goal=   None    Shift=    0.000
 RMSDP=1.31D-06 MaxDP=1.01D-04 DE=-4.36D-05 OVMax= 7.45D-04

 Cycle  12  Pass 1  IDiag  1:
 RMSU=  5.78D-07    CP:  9.97D-01  1.01D+00  3.33D-01  6.86D-01
 E= -1694.03707790316     Delta-E=       -0.000001610926 Rises=F Damp=F
 DIIS: error= 1.76D-05 at cycle   5 NSaved=   5.
 NSaved= 5 IEnMin= 5 EnMin= -1694.03707790316     IErMin= 5 ErrMin= 1.76D-05
 ErrMax= 1.76D-05  0.00D+00 EMaxC= 1.00D-01 BMatC= 2.79D-08 BMatP= 1.43D-06
 IDIUse=1 WtCom= 1.00D+00 WtEn= 0.00D+00
 Coeff-Com: -0.258D-02 0.295D+00 0.931D-01 0.280D+00 0.334D+00
 Coeff:     -0.258D-02 0.295D+00 0.931D-01 0.280D+00 0.334D+00
 Gap=     0.060 Goal=   None    Shift=    0.000
 RMSDP=2.09D-07 MaxDP=1.69D-05 DE=-1.61D-06 OVMax= 1.50D-04

 Cycle  13  Pass 1  IDiag  1:
 RMSU=  1.63D-07    CP:  9.97D-01  1.01D+00  3.33D-01  7.17D-01  7.88D-01
 E= -1694.03707793528     Delta-E=       -0.000000032122 Rises=F Damp=F
 DIIS: error= 3.48D-06 at cycle   6 NSaved=   6.
 NSaved= 6 IEnMin= 6 EnMin= -1694.03707793528     IErMin= 6 ErrMin= 3.48D-06
 ErrMax= 3.48D-06  0.00D+00 EMaxC= 1.00D-01 BMatC= 1.21D-09 BMatP= 2.79D-08
 IDIUse=1 WtCom= 1.00D+00 WtEn= 0.00D+00
 Coeff-Com: -0.114D-02 0.127D+00 0.392D-01 0.124D+00 0.206D+00 0.505D+00
 Coeff:     -0.114D-02 0.127D+00 0.392D-01 0.124D+00 0.206D+00 0.505D+00
 Gap=     0.060 Goal=   None    Shift=    0.000
 RMSDP=6.02D-08 MaxDP=3.64D-06 DE=-3.21D-08 OVMax= 3.22D-05

 Cycle  14  Pass 1  IDiag  1:
 RMSU=  4.85D-08    CP:  9.97D-01  1.01D+00  3.32D-01  7.08D-01  8.24D-01
                    CP:  8.58D-01
 E= -1694.03707793661     Delta-E=       -0.000000001335 Rises=F Damp=F
 DIIS: error= 6.99D-07 at cycle   7 NSaved=   7.
 NSaved= 7 IEnMin= 7 EnMin= -1694.03707793661     IErMin= 7 ErrMin= 6.99D-07
 ErrMax= 6.99D-07  0.00D+00 EMaxC= 1.00D-01 BMatC= 1.34D-10 BMatP= 1.21D-09
 IDIUse=1 WtCom= 1.00D+00 WtEn= 0.00D+00
 Coeff-Com: -0.441D-03 0.480D-01 0.145D-01 0.484D-01 0.872D-01 0.311D+00
 Coeff-Com:  0.492D+00
 Coeff:     -0.441D-03 0.480D-01 0.145D-01 0.484D-01 0.872D-01 0.311D+00
 Coeff:      0.492D+00
 Gap=     0.060 Goal=   None    Shift=    0.000
 RMSDP=1.55D-08 MaxDP=6.20D-07 DE=-1.34D-09 OVMax= 4.34D-06

 Cycle  15  Pass 1  IDiag  1:
 RMSU=  1.09D-08    CP:  9.97D-01  1.01D+00  3.32D-01  7.10D-01  8.26D-01
                    CP:  8.73D-01  7.98D-01
 E= -1694.03707793674     Delta-E=       -0.000000000131 Rises=F Damp=F
 DIIS: error= 1.93D-07 at cycle   8 NSaved=   8.
 NSaved= 8 IEnMin= 8 EnMin= -1694.03707793674     IErMin= 8 ErrMin= 1.93D-07
 ErrMax= 1.93D-07  0.00D+00 EMaxC= 1.00D-01 BMatC= 1.57D-11 BMatP= 1.34D-10
 IDIUse=1 WtCom= 1.00D+00 WtEn= 0.00D+00
 Coeff-Com: -0.243D-04 0.214D-02 0.377D-03 0.358D-02 0.547D-02 0.885D-01
 Coeff-Com:  0.271D+00 0.629D+00
 Coeff:     -0.243D-04 0.214D-02 0.377D-03 0.358D-02 0.547D-02 0.885D-01
 Coeff:      0.271D+00 0.629D+00
 Gap=     0.060 Goal=   None    Shift=    0.000
 RMSDP=6.47D-09 MaxDP=3.06D-07 DE=-1.31D-10 OVMax= 1.53D-06

 SCF Done:  E(RB3LYP) =  -1694.03707794     A.U. after   15 cycles
            NFock= 15  Conv=0.65D-08     -V/T= 2.0042
 KE= 1.686897851628D+03 PE=-1.336678826467D+04 EE= 5.267819545926D+03
 Leave Link  502 at Wed Sep 27 16:39:52 2023, MaxMem=  3221225472 cpu:            4061.2 elap:             113.0
 (Enter /home/center/opt/aarch64/apps/gaussian16/c01/g16/l601.exe)
 Copying SCF densities to generalized density rwf, IOpCl= 0 IROHF=0.

 **********************************************************************

            Population analysis using the SCF Density.

 **********************************************************************

 Orbital symmetries:
       Occupied  (A") (A') (A') (A") (A") (A') (A") (A') (A') (A")
                 (A') (A') (A") (A') (A") (A') (A") (A') (A") (A')
                 (A") (A') (A") (A') (A") (A') (A') (A") (A') (A")
                 (A") (A') (A") (A') (A') (A") (A') (A") (A') (A')
                 (A") (A') (A") (A') (A') (A") (A') (A") (A') (A')
                 (A") (A") (A') (A') (A") (A') (A') (A") (A') (A")
                 (A') (A") (A") (A") (A') (A') (A') (A') (A") (A")
                 (A') (A") (A") (A") (A') (A') (A") (A') (A') (A')
                 (A') (A") (A") (A') (A") (A") (A') (A") (A') (A')
                 (A") (A') (A") (A") (A') (A') (A") (A') (A") (A')
                 (A") (A') (A') (A') (A') (A") (A') (A") (A") (A')
                 (A') (A') (A") (A") (A") (A") (A") (A') (A") (A')
                 (A') (A') (A') (A") (A") (A') (A') (A') (A") (A")
                 (A") (A") (A') (A') (A") (A') (A") (A') (A') (A')
                 (A") (A") (A") (A") (A') (A')
       Virtual   (A') (A') (A") (A") (A") (A") (A') (A') (A') (A")
                 (A') (A') (A") (A') (A') (A") (A') (A") (A') (A")
                 (A') (A') (A") (A") (A') (A") (A') (A") (A") (A')
                 (A") (A') (A") (A') (A') (A") (A") (A') (A') (A')
                 (A") (A') (A') (A") (A') (A") (A') (A") (A") (A")
                 (A') (A') (A') (A') (A") (A') (A') (A") (A') (A')
                 (A") (A") (A") (A") (A') (A') (A") (A') (A") (A')
                 (A") (A') (A") (A') (A") (A') (A") (A") (A') (A")
                 (A') (A') (A') (A') (A") (A') (A') (A") (A") (A')
                 (A") (A') (A") (A') (A") (A') (A') (A") (A') (A')
                 (A") (A') (A") (A") (A') (A") (A") (A') (A") (A')
                 (A") (A') (A") (A') (A') (A") (A") (A') (A') (A")
                 (A') (A') (A") (A') (A') (A") (A') (A") (A') (A")
                 (A') (A') (A') (A") (A') (A") (A') (A") (A') (A')
                 (A") (A") (A') (A') (A") (A") (A") (A") (A') (A")
                 (A') (A") (A') (A") (A') (A") (A') (A') (A') (A')
                 (A") (A") (A') (A") (A') (A") (A') (A') (A") (A")
                 (A') (A') (A') (A") (A") (A') (A") (A') (A') (A")
                 (A") (A') (A") (A') (A") (A") (A') (A") (A') (A')
                 (A") (A') (A") (A') (A') (A") (A") (A') (A') (A")
                 (A") (A') (A") (A') (A") (A') (A') (A") (A') (A')
                 (A") (A') (A") (A') (A") (A') (A") (A") (A') (A")
                 (A') (A") (A') (A') (A") (A") (A') (A") (A') (A")
                 (A') (A') (A") (A') (A") (A') (A") (A') (A") (A')
                 (A") (A") (A') (A') (A") (A') (A') (A') (A") (A")
                 (A') (A") (A') (A") (A") (A') (A") (A') (A') (A")
                 (A") (A') (A') (A") (A") (A') (A') (A') (A") (A')
                 (A") (A') (A") (A') (A") (A") (A') (A") (A") (A')
                 (A") (A') (A') (A") (A') (A') (A") (A') (A") (A")
                 (A') (A") (A') (A") (A") (A') (A") (A") (A') (A')
                 (A') (A') (A") (A") (A') (A") (A') (A") (A') (A")
                 (A') (A") (A') (A") (A") (A') (A') (A') (A") (A")
                 (A') (A') (A") (A') (A') (A") (A') (A") (A") (A")
                 (A') (A") (A') (A") (A') (A") (A') (A") (A') (A')
                 (A') (A") (A') (A') (A") (A') (A") (A') (A") (A')
                 (A') (A") (A') (A") (A') (A') (A") (A") (A') (A')
                 (A") (A") (A') (A") (A") (A') (A") (A') (A") (A')
                 (A") (A") (A') (A') (A") (A") (A') (A") (A') (A')
                 (A") (A') (A") (A') (A') (A") (A') (A') (A') (A')
                 (A") (A") (A') (A") (A") (A") (A') (A") (A') (A')
                 (A") (A') (A") (A') (A') (A") (A') (A") (A") (A')
                 (A') (A") (A') (A") (A') (A") (A') (A") (A') (A')
                 (A') (A') (A") (A') (A") (A') (A') (A") (A") (A")
                 (A') (A") (A") (A') (A") (A") (A') (A') (A") (A')
                 (A") (A') (A") (A") (A') (A') (A") (A') (A") (A')
                 (A") (A") (A') (A') (A") (A') (A") (A") (A') (A")
                 (A') (A') (A") (A') (A") (A") (A') (A') (A") (A')
                 (A") (A') (A") (A") (A') (A') (A') (A") (A") (A')
                 (A') (A") (A") (A') (A") (A') (A") (A") (A') (A")
                 (A') (A") (A") (A') (A") (A") (A') (A") (A') (A')
                 (A") (A") (A') (A') (A') (A") (A') (A") (A') (A')
                 (A") (A") (A') (A") (A') (A') (A') (A") (A") (A')
                 (A") (A') (A") (A') (A") (A') (A") (A') (A") (A")
                 (A') (A") (A') (A") (A") (A') (A') (A") (A') (A")
                 (A') (A') (A') (A") (A") (A') (A") (A") (A') (A")
                 (A") (A') (A") (A') (A') (A") (A') (A') (A") (A')
                 (A") (A') (A') (A") (A") (A') (A') (A") (A') (A")
                 (A') (A") (A') (A') (A') (A") (A") (A') (A') (A")
                 (A") (A') (A") (A') (A") (A") (A") (A') (A') (A")
                 (A") (A') (A') (A") (A') (A') (A") (A') (A') (A")
                 (A") (A') (A") (A') (A') (A') (A") (A') (A') (A")
                 (A') (A') (A") (A") (A') (A") (A') (A") (A') (A')
                 (A") (A") (A") (A') (A') (A") (A") (A') (A") (A')
                 (A') (A') (A") (A') (A") (A") (A') (A") (A') (A")
                 (A') (A") (A') (A") (A') (A") (A') (A') (A') (A")
                 (A') (A") (A') (A') (A") (A') (A") (A") (A') (A')
                 (A") (A") (A') (A") (A') (A") (A') (A') (A") (A')
                 (A") (A') (A") (A") (A') (A') (A") (A") (A') (A')
                 (A') (A') (A") (A") (A') (A") (A") (A') (A") (A")
                 (A') (A') (A') (A") (A') (A") (A') (A") (A') (A")
                 (A') (A") (A') (A") (A') (A") (A') (A") (A") (A')
                 (A') (A") (A") (A") (A') (A') (A') (A") (A') (A")
                 (A') (A') (A") (A') (A") (A') (A") (A") (A') (A')
                 (A') (A") (A") (A') (A") (A') (A') (A") (A") (A')
                 (A') (A") (A') (A") (A') (A') (A") (A') (A') (A")
                 (A') (A') (A") (A") (A') (A") (A') (A') (A") (A")
                 (A") (A') (A") (A") (A') (A') (A") (A") (A') (A")
                 (A') (A') (A") (A") (A') (A') (A') (A') (A") (A")
                 (A") (A") (A') (A') (A') (A") (A') (A") (A') (A')
                 (A") (A") (A") (A") (A') (A') (A") (A') (A') (A")
                 (A') (A") (A') (A') (A") (A') (A") (A') (A") (A')
                 (A') (A") (A') (A")
 The electronic state is 1-A'.
 Alpha  occ. eigenvalues --  -10.19786 -10.19786 -10.19748 -10.19747 -10.19688
 Alpha  occ. eigenvalues --  -10.19688 -10.19618 -10.19618 -10.18883 -10.18801
 Alpha  occ. eigenvalues --  -10.18801 -10.18786 -10.18752 -10.18752 -10.18693
 Alpha  occ. eigenvalues --  -10.18693 -10.18619 -10.18619 -10.18594 -10.18594
 Alpha  occ. eigenvalues --  -10.18483 -10.18483 -10.17773 -10.17773 -10.17741
 Alpha  occ. eigenvalues --  -10.17741 -10.17651 -10.17651 -10.17582 -10.17582
 Alpha  occ. eigenvalues --  -10.16929 -10.16929 -10.16845 -10.16845 -10.16792
 Alpha  occ. eigenvalues --  -10.16791 -10.16786 -10.16737 -10.16737 -10.16391
 Alpha  occ. eigenvalues --  -10.16360 -10.16360 -10.16315 -10.16315  -0.90270
 Alpha  occ. eigenvalues --   -0.88765  -0.88170  -0.86732  -0.86434  -0.84435
 Alpha  occ. eigenvalues --   -0.83290  -0.81311  -0.80826  -0.79386  -0.79289
 Alpha  occ. eigenvalues --   -0.78615  -0.77424  -0.77143  -0.76948  -0.75087
 Alpha  occ. eigenvalues --   -0.74837  -0.73850  -0.73147  -0.71758  -0.70163
 Alpha  occ. eigenvalues --   -0.68287  -0.67971  -0.66224  -0.63602  -0.63237
 Alpha  occ. eigenvalues --   -0.62114  -0.61606  -0.61281  -0.60943  -0.60242
 Alpha  occ. eigenvalues --   -0.59923  -0.58797  -0.58566  -0.58161  -0.56588
 Alpha  occ. eigenvalues --   -0.53550  -0.53483  -0.53169  -0.51641  -0.51459
 Alpha  occ. eigenvalues --   -0.51205  -0.50576  -0.49325  -0.48558  -0.48045
 Alpha  occ. eigenvalues --   -0.47463  -0.47107  -0.46549  -0.46303  -0.46150
 Alpha  occ. eigenvalues --   -0.45686  -0.44947  -0.44748  -0.44371  -0.44019
 Alpha  occ. eigenvalues --   -0.43457  -0.42897  -0.42733  -0.42450  -0.42356
 Alpha  occ. eigenvalues --   -0.41695  -0.41661  -0.41527  -0.41214  -0.40720
 Alpha  occ. eigenvalues --   -0.40500  -0.40240  -0.40194  -0.39530  -0.39281
 Alpha  occ. eigenvalues --   -0.39002  -0.38472  -0.37546  -0.37300  -0.37131
 Alpha  occ. eigenvalues --   -0.36374  -0.35651  -0.35292  -0.34937  -0.34624
 Alpha  occ. eigenvalues --   -0.34264  -0.33912  -0.33544  -0.33406  -0.33151
 Alpha  occ. eigenvalues --   -0.32954  -0.31860  -0.30507  -0.30186  -0.29536
 Alpha  occ. eigenvalues --   -0.29153  -0.28543  -0.27357  -0.27105  -0.25521
 Alpha  occ. eigenvalues --   -0.25254  -0.23307  -0.23295  -0.21483  -0.18740
 Alpha  occ. eigenvalues --   -0.16729
 Alpha virt. eigenvalues --   -0.10726  -0.08634  -0.05451  -0.03752  -0.03395
 Alpha virt. eigenvalues --   -0.01696  -0.01210   0.00889   0.01053   0.01112
 Alpha virt. eigenvalues --    0.01690   0.03091   0.03259   0.03596   0.03988
 Alpha virt. eigenvalues --    0.03999   0.04901   0.05677   0.05739   0.06172
 Alpha virt. eigenvalues --    0.06300   0.06918   0.07131   0.07413   0.07756
 Alpha virt. eigenvalues --    0.08379   0.08752   0.09312   0.09432   0.09985
 Alpha virt. eigenvalues --    0.10715   0.10884   0.11822   0.12644   0.12950
 Alpha virt. eigenvalues --    0.13144   0.13661   0.13963   0.14760   0.15207
 Alpha virt. eigenvalues --    0.15242   0.16619   0.17465   0.17566   0.17597
 Alpha virt. eigenvalues --    0.18001   0.18704   0.18713   0.19407   0.20506
 Alpha virt. eigenvalues --    0.20947   0.21220   0.22150   0.22529   0.23609
 Alpha virt. eigenvalues --    0.23672   0.24230   0.24805   0.25227   0.25604
 Alpha virt. eigenvalues --    0.26334   0.26535   0.26628   0.26966   0.27283
 Alpha virt. eigenvalues --    0.27676   0.27952   0.28202   0.28703   0.28899
 Alpha virt. eigenvalues --    0.28962   0.29542   0.29639   0.29827   0.30201
 Alpha virt. eigenvalues --    0.30292   0.30496   0.31024   0.31117   0.32034
 Alpha virt. eigenvalues --    0.32742   0.33850   0.34040   0.34290   0.34707
 Alpha virt. eigenvalues --    0.35033   0.35470   0.35628   0.35927   0.36081
 Alpha virt. eigenvalues --    0.36301   0.36308   0.37380   0.37404   0.37818
 Alpha virt. eigenvalues --    0.37830   0.37985   0.38254   0.38716   0.38861
 Alpha virt. eigenvalues --    0.38957   0.39228   0.39781   0.39869   0.40188
 Alpha virt. eigenvalues --    0.40350   0.40674   0.40803   0.40997   0.41113
 Alpha virt. eigenvalues --    0.41518   0.41909   0.41910   0.42061   0.42427
 Alpha virt. eigenvalues --    0.42561   0.42996   0.43080   0.43224   0.43372
 Alpha virt. eigenvalues --    0.43381   0.44398   0.44418   0.44902   0.45049
 Alpha virt. eigenvalues --    0.45186   0.45272   0.45478   0.45494   0.45911
 Alpha virt. eigenvalues --    0.45966   0.46354   0.46707   0.46747   0.46762
 Alpha virt. eigenvalues --    0.46926   0.47157   0.47613   0.47961   0.48403
 Alpha virt. eigenvalues --    0.48685   0.48870   0.49082   0.49327   0.49748
 Alpha virt. eigenvalues --    0.50085   0.50349   0.50530   0.50554   0.51330
 Alpha virt. eigenvalues --    0.51688   0.52170   0.52255   0.52771   0.52810
 Alpha virt. eigenvalues --    0.53468   0.53908   0.54321   0.54837   0.55790
 Alpha virt. eigenvalues --    0.56185   0.56562   0.57201   0.57408   0.58002
 Alpha virt. eigenvalues --    0.58270   0.58316   0.58855   0.58914   0.59257
 Alpha virt. eigenvalues --    0.59671   0.60111   0.60288   0.60369   0.61216
 Alpha virt. eigenvalues --    0.61331   0.61727   0.62125   0.62133   0.62169
 Alpha virt. eigenvalues --    0.62322   0.62865   0.62872   0.63071   0.63358
 Alpha virt. eigenvalues --    0.63512   0.63592   0.63747   0.64032   0.64358
 Alpha virt. eigenvalues --    0.64778   0.64990   0.65367   0.65793   0.66458
 Alpha virt. eigenvalues --    0.66777   0.67553   0.69079   0.69275   0.69361
 Alpha virt. eigenvalues --    0.69628   0.70189   0.70438   0.70839   0.71345
 Alpha virt. eigenvalues --    0.71742   0.72697   0.72772   0.73047   0.73406
 Alpha virt. eigenvalues --    0.73577   0.73636   0.74781   0.75295   0.75326
 Alpha virt. eigenvalues --    0.75853   0.76284   0.76615   0.77416   0.78169
 Alpha virt. eigenvalues --    0.78672   0.78766   0.79214   0.79451   0.79470
 Alpha virt. eigenvalues --    0.80148   0.80721   0.80845   0.80966   0.81093
 Alpha virt. eigenvalues --    0.81686   0.82027   0.83148   0.83194   0.83311
 Alpha virt. eigenvalues --    0.83736   0.83944   0.84103   0.84405   0.84657
 Alpha virt. eigenvalues --    0.85855   0.86306   0.86528   0.86959   0.87188
 Alpha virt. eigenvalues --    0.87939   0.88184   0.88650   0.89009   0.89517
 Alpha virt. eigenvalues --    0.90194   0.90242   0.91268   0.91666   0.91913
 Alpha virt. eigenvalues --    0.93167   0.93210   0.93466   0.94632   0.94914
 Alpha virt. eigenvalues --    0.95230   0.95539   0.96238   0.96364   0.96491
 Alpha virt. eigenvalues --    0.96636   0.97213   0.97493   0.98194   0.98401
 Alpha virt. eigenvalues --    0.98774   0.98905   0.99616   0.99769   1.00023
 Alpha virt. eigenvalues --    1.00163   1.01169   1.01347   1.01950   1.02704
 Alpha virt. eigenvalues --    1.02797   1.03031   1.03264   1.03411   1.04433
 Alpha virt. eigenvalues --    1.05057   1.05457   1.05689   1.06063   1.06376
 Alpha virt. eigenvalues --    1.06666   1.06733   1.07248   1.07342   1.07692
 Alpha virt. eigenvalues --    1.08144   1.08705   1.08889   1.09125   1.09731
 Alpha virt. eigenvalues --    1.10766   1.11228   1.11390   1.11675   1.11860
 Alpha virt. eigenvalues --    1.12211   1.12865   1.12908   1.13307   1.13601
 Alpha virt. eigenvalues --    1.14004   1.14406   1.14906   1.15582   1.15663
 Alpha virt. eigenvalues --    1.15670   1.16309   1.16662   1.17146   1.18580
 Alpha virt. eigenvalues --    1.18828   1.19359   1.19558   1.20201   1.21595
 Alpha virt. eigenvalues --    1.21872   1.23123   1.23824   1.25093   1.25756
 Alpha virt. eigenvalues --    1.26203   1.26585   1.28266   1.29412   1.30577
 Alpha virt. eigenvalues --    1.32322   1.33237   1.33285   1.33633   1.35069
 Alpha virt. eigenvalues --    1.35592   1.36533   1.37445   1.38338   1.38731
 Alpha virt. eigenvalues --    1.40058   1.40112   1.41097   1.41206   1.42021
 Alpha virt. eigenvalues --    1.42269   1.42342   1.42824   1.43089   1.44546
 Alpha virt. eigenvalues --    1.44798   1.44969   1.45352   1.45564   1.46499
 Alpha virt. eigenvalues --    1.47094   1.47361   1.48228   1.48281   1.48834
 Alpha virt. eigenvalues --    1.48852   1.49309   1.49405   1.49633   1.49981
 Alpha virt. eigenvalues --    1.50297   1.50465   1.50706   1.50909   1.51180
 Alpha virt. eigenvalues --    1.51849   1.52296   1.52425   1.53016   1.53823
 Alpha virt. eigenvalues --    1.54091   1.54445   1.54965   1.55373   1.55593
 Alpha virt. eigenvalues --    1.55794   1.56190   1.56544   1.56906   1.57374
 Alpha virt. eigenvalues --    1.57458   1.58295   1.58726   1.59635   1.59974
 Alpha virt. eigenvalues --    1.60464   1.61084   1.61824   1.61883   1.62566
 Alpha virt. eigenvalues --    1.63279   1.64142   1.64470   1.64572   1.65021
 Alpha virt. eigenvalues --    1.66079   1.66549   1.67720   1.68440   1.69457
 Alpha virt. eigenvalues --    1.70287   1.70543   1.70589   1.71650   1.71813
 Alpha virt. eigenvalues --    1.71976   1.72098   1.72180   1.72892   1.73023
 Alpha virt. eigenvalues --    1.73208   1.74254   1.74326   1.74605   1.75182
 Alpha virt. eigenvalues --    1.75501   1.75967   1.76183   1.77025   1.77445
 Alpha virt. eigenvalues --    1.78566   1.78869   1.79702   1.80324   1.80521
 Alpha virt. eigenvalues --    1.80920   1.81036   1.81600   1.81623   1.81856
 Alpha virt. eigenvalues --    1.82239   1.83301   1.83458   1.83842   1.83875
 Alpha virt. eigenvalues --    1.85147   1.85319   1.85838   1.86026   1.86485
 Alpha virt. eigenvalues --    1.86587   1.86999   1.87155   1.87858   1.88438
 Alpha virt. eigenvalues --    1.88811   1.89032   1.89300   1.89578   1.89680
 Alpha virt. eigenvalues --    1.90306   1.90709   1.90930   1.91234   1.91344
 Alpha virt. eigenvalues --    1.91816   1.91902   1.92361   1.92778   1.93090
 Alpha virt. eigenvalues --    1.93623   1.93741   1.94252   1.94939   1.94982
 Alpha virt. eigenvalues --    1.95331   1.96074   1.96197   1.96579   1.96940
 Alpha virt. eigenvalues --    1.97537   1.97775   1.97963   1.98956   1.99684
 Alpha virt. eigenvalues --    2.00181   2.00508   2.00818   2.01612   2.02017
 Alpha virt. eigenvalues --    2.02639   2.02676   2.04290   2.04988   2.05766
 Alpha virt. eigenvalues --    2.06272   2.07479   2.08706   2.09130   2.09468
 Alpha virt. eigenvalues --    2.09998   2.10605   2.11522   2.12296   2.12380
 Alpha virt. eigenvalues --    2.13267   2.13845   2.13924   2.14275   2.15189
 Alpha virt. eigenvalues --    2.16318   2.16684   2.17009   2.18615   2.18681
 Alpha virt. eigenvalues --    2.19414   2.20065   2.20230   2.22289   2.22950
 Alpha virt. eigenvalues --    2.23150   2.23671   2.23717   2.24550   2.24780
 Alpha virt. eigenvalues --    2.25686   2.26223   2.26688   2.26755   2.27466
 Alpha virt. eigenvalues --    2.28027   2.28084   2.28569   2.29124   2.29933
 Alpha virt. eigenvalues --    2.29981   2.31826   2.32600   2.33014   2.34357
 Alpha virt. eigenvalues --    2.34547   2.35293   2.37838   2.38513   2.39040
 Alpha virt. eigenvalues --    2.39852   2.40601   2.40905   2.42409   2.42883
 Alpha virt. eigenvalues --    2.43264   2.43268   2.45104   2.45172   2.47117
 Alpha virt. eigenvalues --    2.47470   2.47559   2.47810   2.48800   2.51620
 Alpha virt. eigenvalues --    2.51745   2.52750   2.53093   2.53517   2.54590
 Alpha virt. eigenvalues --    2.55392   2.55875   2.56000   2.56474   2.56845
 Alpha virt. eigenvalues --    2.58085   2.58134   2.58909   2.59632   2.60182
 Alpha virt. eigenvalues --    2.60204   2.60692   2.60914   2.61204   2.61216
 Alpha virt. eigenvalues --    2.61560   2.62119   2.62189   2.62688   2.63770
 Alpha virt. eigenvalues --    2.64613   2.64682   2.64974   2.65199   2.66056
 Alpha virt. eigenvalues --    2.66157   2.66479   2.66987   2.67109   2.67371
 Alpha virt. eigenvalues --    2.68304   2.68518   2.68557   2.69069   2.69242
 Alpha virt. eigenvalues --    2.69632   2.69925   2.70367   2.70693   2.71300
 Alpha virt. eigenvalues --    2.71627   2.71781   2.72405   2.72794   2.72909
 Alpha virt. eigenvalues --    2.73876   2.74217   2.74775   2.74946   2.75138
 Alpha virt. eigenvalues --    2.76376   2.76658   2.76980   2.76996   2.77521
 Alpha virt. eigenvalues --    2.77832   2.77973   2.78629   2.78917   2.79558
 Alpha virt. eigenvalues --    2.79832   2.80520   2.81490   2.82475   2.83425
 Alpha virt. eigenvalues --    2.83919   2.84534   2.84749   2.84813   2.85923
 Alpha virt. eigenvalues --    2.86244   2.86275   2.86830   2.87736   2.88208
 Alpha virt. eigenvalues --    2.88921   2.90197   2.90501   2.91398   2.91628
 Alpha virt. eigenvalues --    2.92918   2.93118   2.93505   2.93707   2.93951
 Alpha virt. eigenvalues --    2.94520   2.95615   2.95624   2.96498   2.96842
 Alpha virt. eigenvalues --    2.96853   2.97073   2.98601   3.00303   3.00685
 Alpha virt. eigenvalues --    3.00918   3.01466   3.01519   3.04746   3.06025
 Alpha virt. eigenvalues --    3.07189   3.07662   3.09053   3.09381   3.10268
 Alpha virt. eigenvalues --    3.12684   3.12784   3.16394   3.16958   3.17333
 Alpha virt. eigenvalues --    3.17633   3.19018   3.19121   3.20063   3.20426
 Alpha virt. eigenvalues --    3.22632   3.23327   3.23582   3.26101   3.30578
 Alpha virt. eigenvalues --    3.30717   3.31735   3.32166   3.32286   3.35592
 Alpha virt. eigenvalues --    3.36398   3.36662   3.37117   3.37285   3.37689
 Alpha virt. eigenvalues --    3.38180   3.38706   3.39047   3.40586   3.40606
 Alpha virt. eigenvalues --    3.42386   3.42978   3.43227   3.44296   3.45768
 Alpha virt. eigenvalues --    3.46178   3.46850   3.48318   3.49142   3.49326
 Alpha virt. eigenvalues --    3.51175   3.51517   3.52383   3.52706   3.54145
 Alpha virt. eigenvalues --    3.56219   3.57776   3.59639   3.60089   3.61089
 Alpha virt. eigenvalues --    3.62611   3.63145   3.63960   3.64607   3.65138
 Alpha virt. eigenvalues --    3.65478   3.66811   3.68380   3.68523   3.68984
 Alpha virt. eigenvalues --    3.69945   3.70342   3.71337   3.71411   4.00537
 Alpha virt. eigenvalues --    4.00598   4.01370   4.01638   4.02784   4.02810
 Alpha virt. eigenvalues --    4.03351   4.03600   4.15803   4.16788   4.18111
 Alpha virt. eigenvalues --    4.20192   4.20515   4.21079   4.22213   4.22937
 Alpha virt. eigenvalues --    4.23478   4.25027   4.25143   4.26147   4.28107
 Alpha virt. eigenvalues --    4.30473   4.38129   4.42286   4.62316   4.65634
 Alpha virt. eigenvalues --    4.78483   4.79126   4.79875   4.81243   4.81603
 Alpha virt. eigenvalues --    4.81895   4.82266   4.83087   4.85411   4.85909
 Alpha virt. eigenvalues --   23.40316  23.43603  23.55510  23.58987  23.69971
 Alpha virt. eigenvalues --   23.73013  23.78517  23.79952  23.80929  23.82227
 Alpha virt. eigenvalues --   23.83062  23.84716  23.87100  23.88095  23.89559
 Alpha virt. eigenvalues --   23.89904  23.90825  23.91350  23.92811  23.94992
 Alpha virt. eigenvalues --   23.96889  23.98301  23.98927  23.99761  24.08778
 Alpha virt. eigenvalues --   24.09350  24.10120  24.10480  24.11287  24.11898
 Alpha virt. eigenvalues --   24.12635  24.13932  24.14135  24.14624  24.15168
 Alpha virt. eigenvalues --   24.15218  24.15492  24.16103  24.16946  24.16980
 Alpha virt. eigenvalues --   24.20092  24.20143  24.21865  24.21940
          Condensed to atoms (all electrons):
 Mulliken charges:
               1
     1  C   -0.007667
     2  C   -0.036127
     3  C   -0.154532
     4  C   -0.050647
     5  C   -0.064964
     6  C   -0.081350
     7  C   -0.136285
     8  C    0.007354
     9  C   -0.003884
    10  C   -0.034122
    11  H    0.100173
    12  H    0.090544
    13  H    0.078677
    14  H    0.085526
    15  H    0.097776
    16  H    0.099784
    17  C   -0.139422
    18  C    0.007354
    19  C   -0.009565
    20  C   -0.034122
    21  H    0.089470
    22  H    0.077415
    23  C   -0.136285
    24  C   -0.007667
    25  C   -0.003884
    26  C   -0.036127
    27  H    0.090544
    28  H    0.078677
    29  C   -0.154532
    30  C   -0.064964
    31  C   -0.050647
    32  C   -0.081350
    33  H    0.100173
    34  H    0.099784
    35  H    0.097776
    36  H    0.085526
    37  C   -0.008559
    38  C   -0.125198
    39  C   -0.064126
    40  C   -0.039202
    41  C   -0.085459
    42  C   -0.127114
    43  C   -0.032733
    44  C    0.005792
    45  C   -0.009224
    46  C   -0.134730
    47  H    0.077556
    48  H    0.068899
    49  H    0.118839
    50  H    0.119403
    51  H    0.080665
    52  H    0.089646
    53  C   -0.036177
    54  C    0.005792
    55  C   -0.016121
    56  C   -0.134730
    57  H    0.067520
    58  H    0.117459
    59  C   -0.032733
    60  C   -0.008559
    61  C   -0.009224
    62  C   -0.125198
    63  H    0.068899
    64  H    0.118839
    65  C   -0.064126
    66  C   -0.085459
    67  C   -0.039202
    68  C   -0.127114
    69  H    0.077556
    70  H    0.089646
    71  H    0.080665
    72  H    0.119403
 Sum of Mulliken charges =   0.00000
 Mulliken charges with hydrogens summed into heavy atoms:
               1
     1  C   -0.007667
     2  C   -0.036127
     3  C   -0.054359
     4  C    0.034879
     5  C    0.034820
     6  C    0.016426
     7  C   -0.045741
     8  C    0.007354
     9  C    0.074793
    10  C   -0.034122
    17  C   -0.049952
    18  C    0.007354
    19  C    0.067850
    20  C   -0.034122
    23  C   -0.045741
    24  C   -0.007667
    25  C    0.074793
    26  C   -0.036127
    29  C   -0.054359
    30  C    0.034820
    31  C    0.034879
    32  C    0.016426
    37  C   -0.008559
    38  C   -0.125198
    39  C    0.013430
    40  C    0.080201
    41  C    0.004187
    42  C   -0.046449
    43  C    0.036166
    44  C    0.005792
    45  C    0.109615
    46  C   -0.134730
    53  C    0.031343
    54  C    0.005792
    55  C    0.101338
    56  C   -0.134730
    59  C    0.036166
    60  C   -0.008559
    61  C    0.109615
    62  C   -0.125198
    65  C    0.013430
    66  C    0.004187
    67  C    0.080201
    68  C   -0.046449
         Mulliken charges condensed to fragments:
      1     -0.001591
      2      0.001591
 Electronic spatial extent (au):  <R**2>=          24920.7151
 Charge=              0.0000 electrons
 Dipole moment (field-independent basis, Debye):
    X=             -1.3516    Y=             -1.8678    Z=              0.0000  Tot=              2.3055
 Quadrupole moment (field-independent basis, Debye-Ang):
   XX=           -245.5008   YY=           -250.4965   ZZ=           -219.8931
   XY=              0.2137   XZ=              0.0000   YZ=              0.0000
 Traceless Quadrupole moment (field-independent basis, Debye-Ang):
   XX=             -6.8707   YY=            -11.8664   ZZ=             18.7370
   XY=              0.2137   XZ=              0.0000   YZ=              0.0000
 Octapole moment (field-independent basis, Debye-Ang**2):
  XXX=            -76.5269  YYY=            152.8935  ZZZ=              0.0000  XYY=             14.2467
  XXY=            -66.7925  XXZ=              0.0000  XZZ=            -24.3488  YZZ=            -41.7071
  YYZ=              0.0000  XYZ=              0.0000
 Hexadecapole moment (field-independent basis, Debye-Ang**3):
 XXXX=          -2407.7562 YYYY=          -9177.3220 ZZZZ=         -21059.3644 XXXY=          -1496.4954
 XXXZ=              0.0000 YYYX=          -1513.0061 YYYZ=              0.0000 ZZZX=              0.0000
 ZZZY=              0.0000 XXYY=          -2005.6696 XXZZ=          -4329.0688 YYZZ=          -5380.6935
 XXYZ=              0.0000 YYXZ=              0.0000 ZZXY=           -445.2143
 N-N= 4.718033789178D+03 E-N=-1.336678829831D+04  KE= 1.686897851628D+03
 Symmetry A'   KE= 9.135549659808D+02
 Symmetry A"   KE= 7.733428856474D+02
 No NMR shielding tensors so no spin-rotation constants.
 Leave Link  601 at Wed Sep 27 16:39:56 2023, MaxMem=  3221225472 cpu:              43.9 elap:               1.4
 (Enter /home/center/opt/aarch64/apps/gaussian16/c01/g16/l122.exe)
 CPIOFr:  IOpCl= 0 IRwI=-1 IRwCP=  731 ICalc= -1 LCPTot=     1419224 Len1MO=     3708034 IndFrg=     1419224
 CPIOFr:  IOpCl= 0 IRwI=-1 IRwCP=  731 ICalc=  0 LCPTot=     1419224 Len1MO=     3708034 IndFrg=     5127258
 Counterpoise: doing calculation for fragment   1 using the basis set of the full-system, NewBq=T
 Leave Link  122 at Wed Sep 27 16:39:58 2023, MaxMem=  3221225472 cpu:               8.4 elap:               0.3
 (Enter /home/center/opt/aarch64/apps/gaussian16/c01/g16/l301.exe)
 Basis read from rwf:  (5D, 7F)
 No pseudopotential information found on rwf file.
 There are   528 symmetry adapted cartesian basis functions of A'  symmetry.
 There are   476 symmetry adapted cartesian basis functions of A"  symmetry.
 There are   504 symmetry adapted basis functions of A'  symmetry.
 There are   456 symmetry adapted basis functions of A"  symmetry.
   960 basis functions,  1632 primitive gaussians,  1004 cartesian basis functions
    73 alpha electrons       73 beta electrons
       nuclear repulsion energy      1494.3575060573 Hartrees.
 IExCor=  402 DFT=T Ex+Corr=B3LYP ExCW=0 ScaHFX=  0.200000
 ScaDFX=  0.800000  0.720000  1.000000  0.810000 ScalE2=  1.000000  1.000000
 IRadAn=      5 IRanWt=     -1 IRanGd=            0 ICorTp=0 IEmpDi=131
 NAtoms=   72 NActive=   72 NUniq=   40 SFac= 3.24D+00 NAtFMM=   60 NAOKFM=T Big=F
 Integral buffers will be    131072 words long.
 Raffenetti 2 integral format.
 Two-electron integral symmetry is turned on.
 R6Disp:  Grimme-D3 Dispersion energy=       -0.0303938888 Hartrees.
 Nuclear repulsion after empirical dispersion term =     1494.3271121685 Hartrees.
 No density basis found on file    718.
 Leave Link  301 at Wed Sep 27 16:40:01 2023, MaxMem=  3221225472 cpu:               2.2 elap:               0.1
 (Enter /home/center/opt/aarch64/apps/gaussian16/c01/g16/l302.exe)
 NPDir=0 NMtPBC=     1 NCelOv=     1 NCel=       1 NClECP=     1 NCelD=      1
         NCelK=      1 NCelE2=     1 NClLst=     1 CellRange=     0.0.
 One-electron integrals computed using PRISM.
 One-electron integral symmetry used in STVInt
 NBasis=   960 RedAO= T EigKep=  3.53D-05  NBF=   504   456
 NBsUse=   960 1.00D-06 EigRej= -1.00D+00 NBFU=   504   456
 Precomputing XC quadrature grid using
 IXCGrd= 4 IRadAn=           5 IRanWt=          -1 IRanGd=           0 AccXCQ= 0.00D+00.
 Generated NRdTot=       0 NPtTot=           0 NUsed=           0 NTot=          32
 NSgBfM=   990   990   990   990   990 MxSgAt=    72 MxSgA2=    72.
 Leave Link  302 at Wed Sep 27 16:40:05 2023, MaxMem=  3221225472 cpu:              63.7 elap:               1.8
 (Enter /home/center/opt/aarch64/apps/gaussian16/c01/g16/l303.exe)
 DipDrv:  MaxL=1.
 Leave Link  303 at Wed Sep 27 16:40:08 2023, MaxMem=  3221225472 cpu:              13.2 elap:               0.4
 (Enter /home/center/opt/aarch64/apps/gaussian16/c01/g16/l401.exe)
 ExpMin= 1.03D-01 ExpMax= 4.56D+03 ExpMxC= 6.82D+02 IAcc=3 IRadAn=         5 AccDes= 0.00D+00
 Harris functional with IExCor=  402 and IRadAn=       5 diagonalized for initial guess.
 HarFok:  IExCor=  402 AccDes= 0.00D+00 IRadAn=         5 IDoV= 1 UseB2=F ITyADJ=14
 ICtDFT=  3500011 ScaDFX=  1.000000  1.000000  1.000000  1.000000
 FoFCou: FMM=F IPFlag=           0 FMFlag=      100000 FMFlg1=        2000
         NFxFlg=           0 DoJE=T BraDBF=F KetDBF=T FulRan=T
         wScrn=  0.000000 ICntrl=       500 IOpCl=  0 I1Cent=   200000004 NGrid=           0
         NMat0=    1 NMatS0=      1 NMatT0=    0 NMatD0=    1 NMtDS0=    0 NMtDT0=    0
 Petite list used in FoFCou.
 Harris En= -847.066796163516    
 JPrj=0 DoOrth=F DoCkMO=F.
 Initial guess orbital symmetries:
       Occupied  (A") (A') (A") (A') (A") (A') (A") (A') (A") (A')
                 (A") (A') (A') (A') (A") (A') (A") (A') (A") (A')
                 (A') (A") (A') (A") (A') (A") (A') (A') (A") (A')
                 (A") (A") (A') (A') (A") (A") (A') (A") (A') (A')
                 (A') (A") (A") (A") (A') (A') (A") (A') (A') (A")
                 (A') (A") (A") (A') (A') (A") (A') (A") (A') (A")
                 (A") (A') (A') (A") (A') (A") (A') (A") (A') (A')
                 (A") (A") (A')
       Virtual   (A') (A") (A") (A') (A') (A") (A') (A") (A') (A")
                 (A') (A') (A") (A') (A") (A') (A") (A') (A') (A")
                 (A") (A") (A') (A') (A") (A') (A') (A') (A') (A")
                 (A") (A') (A") (A') (A") (A') (A') (A") (A") (A')
                 (A') (A") (A") (A') (A") (A') (A') (A") (A') (A")
                 (A") (A') (A") (A') (A') (A') (A") (A") (A') (A')
                 (A") (A') (A') (A') (A") (A") (A") (A') (A") (A')
                 (A') (A") (A") (A') (A') (A") (A') (A') (A') (A")
                 (A') (A") (A') (A") (A") (A') (A') (A") (A") (A')
                 (A") (A") (A") (A') (A") (A') (A') (A') (A") (A')
                 (A') (A") (A') (A') (A") (A') (A') (A') (A") (A")
                 (A") (A") (A') (A") (A") (A') (A') (A") (A') (A")
                 (A') (A") (A') (A") (A') (A') (A') (A') (A") (A')
                 (A") (A') (A') (A") (A") (A') (A") (A') (A") (A')
                 (A") (A') (A') (A") (A") (A') (A") (A') (A") (A')
                 (A") (A') (A") (A') (A') (A") (A") (A') (A") (A')
                 (A") (A') (A') (A") (A') (A") (A") (A') (A') (A")
                 (A') (A") (A") (A') (A") (A') (A') (A') (A") (A')
                 (A") (A') (A") (A') (A") (A') (A") (A') (A") (A')
                 (A") (A') (A') (A") (A') (A") (A") (A') (A") (A')
                 (A") (A') (A") (A') (A') (A') (A") (A") (A') (A")
                 (A') (A") (A") (A') (A") (A') (A') (A") (A') (A")
                 (A') (A") (A") (A') (A') (A") (A') (A') (A") (A')
                 (A') (A") (A") (A') (A") (A") (A') (A") (A') (A")
                 (A') (A") (A') (A') (A") (A') (A") (A") (A') (A")
                 (A') (A') (A") (A') (A') (A") (A") (A") (A') (A')
                 (A") (A') (A") (A') (A') (A") (A') (A') (A') (A")
                 (A") (A") (A') (A") (A") (A') (A") (A') (A') (A")
                 (A') (A") (A") (A') (A') (A") (A') (A') (A") (A')
                 (A") (A') (A") (A') (A') (A") (A') (A") (A') (A')
                 (A") (A") (A') (A") (A') (A") (A') (A") (A") (A')
                 (A") (A') (A") (A') (A') (A") (A') (A") (A") (A")
                 (A') (A') (A') (A') (A") (A") (A') (A') (A') (A")
                 (A') (A") (A') (A') (A') (A") (A") (A') (A") (A")
                 (A') (A") (A") (A') (A") (A') (A') (A") (A') (A')
                 (A') (A") (A") (A') (A") (A') (A") (A') (A') (A')
                 (A") (A') (A') (A") (A') (A") (A") (A") (A') (A")
                 (A') (A") (A') (A") (A') (A") (A") (A") (A') (A')
                 (A") (A') (A") (A") (A') (A') (A') (A") (A") (A')
                 (A') (A") (A') (A') (A") (A') (A") (A") (A') (A")
                 (A") (A') (A") (A') (A') (A") (A") (A') (A') (A')
                 (A") (A") (A') (A') (A") (A') (A') (A") (A') (A")
                 (A") (A') (A") (A") (A') (A") (A") (A') (A") (A')
                 (A") (A') (A') (A') (A') (A') (A") (A") (A") (A')
                 (A") (A') (A') (A") (A") (A') (A') (A') (A") (A')
                 (A") (A") (A') (A') (A") (A") (A") (A') (A") (A')
                 (A") (A') (A') (A') (A") (A") (A') (A") (A') (A")
                 (A') (A") (A') (A") (A') (A") (A") (A') (A') (A")
                 (A") (A') (A") (A') (A") (A') (A") (A') (A") (A')
                 (A') (A") (A') (A") (A') (A") (A") (A') (A") (A')
                 (A') (A") (A") (A') (A') (A') (A") (A') (A") (A")
                 (A") (A') (A') (A") (A') (A") (A') (A") (A') (A')
                 (A") (A') (A") (A') (A") (A') (A") (A") (A') (A")
                 (A') (A') (A") (A') (A") (A') (A') (A") (A') (A')
                 (A") (A") (A') (A") (A') (A') (A") (A') (A") (A')
                 (A") (A') (A") (A") (A") (A') (A') (A") (A') (A')
                 (A') (A") (A") (A') (A") (A') (A") (A") (A') (A')
                 (A') (A') (A") (A") (A') (A') (A") (A") (A') (A")
                 (A') (A") (A") (A') (A") (A') (A') (A") (A') (A')
                 (A') (A") (A") (A') (A') (A") (A") (A") (A') (A")
                 (A') (A") (A') (A') (A") (A') (A") (A") (A') (A')
                 (A") (A') (A') (A") (A') (A") (A') (A") (A') (A')
                 (A") (A") (A') (A") (A') (A") (A") (A') (A") (A')
                 (A") (A") (A") (A') (A') (A') (A") (A') (A') (A')
                 (A") (A") (A") (A") (A') (A') (A') (A') (A") (A")
                 (A") (A') (A') (A") (A') (A") (A") (A') (A') (A")
                 (A") (A') (A") (A") (A') (A") (A') (A') (A") (A')
                 (A') (A") (A') (A") (A") (A') (A') (A") (A') (A')
                 (A") (A') (A") (A') (A") (A') (A') (A") (A') (A")
                 (A') (A') (A") (A') (A") (A") (A") (A') (A') (A')
                 (A") (A") (A') (A") (A') (A") (A') (A') (A") (A')
[...]
                 (A') (A') (A") (A") (A') (A") (A') (A") (A') (A')
                 (A") (A") (A')
       Virtual   (A') (A") (A") (A') (A') (A") (A') (A') (A') (A")
                 (A") (A') (A") (A') (A") (A') (A") (A") (A') (A")
                 (A') (A') (A") (A') (A") (A') (A') (A') (A') (A")
                 (A") (A") (A") (A') (A') (A") (A') (A") (A') (A")
                 (A') (A') (A') (A") (A') (A") (A") (A') (A') (A")
                 (A") (A') (A') (A") (A') (A") (A") (A") (A') (A")
                 (A') (A') (A') (A') (A') (A") (A') (A') (A") (A")
                 (A") (A') (A') (A') (A") (A') (A") (A") (A") (A')
                 (A') (A") (A') (A") (A") (A') (A") (A') (A') (A')
                 (A') (A') (A") (A") (A") (A") (A') (A") (A') (A")
                 (A') (A') (A') (A") (A") (A') (A') (A") (A') (A")
                 (A') (A") (A") (A") (A') (A') (A") (A') (A') (A")
                 (A') (A") (A") (A') (A') (A") (A') (A") (A') (A")
                 (A") (A') (A') (A') (A') (A") (A") (A") (A') (A")
                 (A') (A") (A') (A") (A') (A') (A") (A") (A') (A")
                 (A') (A") (A') (A") (A') (A') (A") (A') (A") (A")
                 (A') (A") (A') (A') (A") (A") (A') (A") (A') (A")
                 (A') (A') (A") (A') (A') (A") (A") (A') (A') (A')
                 (A") (A') (A") (A") (A") (A") (A') (A") (A') (A')
                 (A") (A') (A") (A') (A') (A') (A") (A') (A") (A')
                 (A") (A") (A') (A') (A") (A") (A') (A') (A") (A')
                 (A') (A') (A') (A") (A") (A") (A") (A') (A') (A")
                 (A') (A") (A") (A') (A") (A') (A") (A') (A") (A')
                 (A") (A') (A') (A") (A') (A") (A") (A') (A') (A")
                 (A") (A') (A') (A") (A") (A') (A") (A") (A") (A')
                 (A') (A") (A') (A') (A") (A') (A') (A") (A') (A")
                 (A") (A') (A") (A') (A') (A") (A") (A") (A') (A')
                 (A") (A') (A') (A") (A") (A") (A') (A") (A') (A')
                 (A") (A') (A") (A') (A") (A') (A') (A') (A") (A')
                 (A") (A") (A') (A') (A") (A") (A') (A") (A') (A")
                 (A') (A') (A") (A") (A') (A') (A") (A') (A') (A')
                 (A") (A") (A') (A") (A') (A") (A') (A") (A') (A')
                 (A') (A") (A") (A") (A') (A") (A') (A') (A') (A")
                 (A") (A') (A") (A') (A') (A") (A') (A") (A") (A')
                 (A') (A") (A') (A") (A") (A') (A') (A") (A') (A")
                 (A') (A") (A') (A") (A') (A") (A") (A') (A') (A")
                 (A') (A") (A') (A') (A") (A") (A') (A") (A') (A')
                 (A") (A') (A") (A') (A') (A") (A') (A") (A') (A")
                 (A") (A') (A") (A') (A") (A') (A") (A') (A') (A")
                 (A") (A') (A") (A') (A') (A") (A") (A') (A') (A")
                 (A') (A") (A') (A") (A') (A') (A")
 The electronic state is 1-A'.
 Alpha  occ. eigenvalues --  -10.18931 -10.18930 -10.18896 -10.18895 -10.18848
 Alpha  occ. eigenvalues --  -10.18848 -10.18813 -10.18813 -10.17956 -10.17955
 Alpha  occ. eigenvalues --  -10.17920 -10.17920 -10.17919 -10.17919 -10.17875
 Alpha  occ. eigenvalues --  -10.17875 -10.17863 -10.17863 -10.17808 -10.17808
 Alpha  occ. eigenvalues --  -10.17781 -10.17781  -0.89340  -0.87865  -0.85549
 Alpha  occ. eigenvalues --   -0.82415  -0.79820  -0.78521  -0.78314  -0.75991
 Alpha  occ. eigenvalues --   -0.74255  -0.72901  -0.69196  -0.67344  -0.62728
 Alpha  occ. eigenvalues --   -0.62370  -0.61108  -0.59964  -0.59301  -0.57689
 Alpha  occ. eigenvalues --   -0.52709  -0.52573  -0.52293  -0.49654  -0.48513
 Alpha  occ. eigenvalues --   -0.47160  -0.46110  -0.45590  -0.45476  -0.43928
 Alpha  occ. eigenvalues --   -0.43182  -0.42578  -0.41808  -0.41572  -0.41386
 Alpha  occ. eigenvalues --   -0.40692  -0.40405  -0.39579  -0.38193  -0.36732
 Alpha  occ. eigenvalues --   -0.36341  -0.35550  -0.34094  -0.33809  -0.33058
 Alpha  occ. eigenvalues --   -0.32930  -0.31612  -0.29665  -0.28406  -0.26623
 Alpha  occ. eigenvalues --   -0.24364  -0.22582  -0.17855
 Alpha virt. eigenvalues --   -0.09755  -0.04464  -0.02747  -0.00147   0.02073
 Alpha virt. eigenvalues --    0.02370   0.03189   0.04746   0.04859   0.04871
 Alpha virt. eigenvalues --    0.06161   0.06575   0.07968   0.08162   0.08303
 Alpha virt. eigenvalues --    0.09607   0.10049   0.11524   0.11533   0.13796
 Alpha virt. eigenvalues --    0.14111   0.14670   0.18092   0.18194   0.18832
 Alpha virt. eigenvalues --    0.19391   0.22815   0.23002   0.24379   0.24942
 Alpha virt. eigenvalues --    0.25581   0.27528   0.27575   0.28012   0.28228
 Alpha virt. eigenvalues --    0.28947   0.29389   0.30158   0.30759   0.31175
 Alpha virt. eigenvalues --    0.32897   0.34528   0.36420   0.36484   0.37134
 Alpha virt. eigenvalues --    0.37503   0.37629   0.37651   0.38116   0.38643
 Alpha virt. eigenvalues --    0.39094   0.39439   0.39739   0.40236   0.40435
 Alpha virt. eigenvalues --    0.41918   0.41926   0.41940   0.42289   0.42318
 Alpha virt. eigenvalues --    0.42643   0.43748   0.44233   0.44835   0.45295
 Alpha virt. eigenvalues --    0.45683   0.45924   0.45953   0.46379   0.47165
 Alpha virt. eigenvalues --    0.47805   0.47809   0.47978   0.48073   0.48231
 Alpha virt. eigenvalues --    0.48568   0.49414   0.49572   0.51377   0.51846
 Alpha virt. eigenvalues --    0.52370   0.53118   0.53671   0.55998   0.57923
 Alpha virt. eigenvalues --    0.57955   0.59048   0.59201   0.60433   0.60585
 Alpha virt. eigenvalues --    0.60693   0.61101   0.61690   0.62105   0.62173
 Alpha virt. eigenvalues --    0.63432   0.63481   0.64458   0.64535   0.65533
 Alpha virt. eigenvalues --    0.66693   0.66910   0.67680   0.67724   0.70658
 Alpha virt. eigenvalues --    0.71305   0.71405   0.71494   0.72803   0.73989
 Alpha virt. eigenvalues --    0.75405   0.75894   0.76289   0.77801   0.77809
 Alpha virt. eigenvalues --    0.78943   0.79160   0.79723   0.81162   0.81509
 Alpha virt. eigenvalues --    0.82881   0.83001   0.84383   0.84585   0.84713
 Alpha virt. eigenvalues --    0.88087   0.89711   0.89765   0.91536   0.92083
 Alpha virt. eigenvalues --    0.92578   0.93749   0.95806   0.96107   0.96442
 Alpha virt. eigenvalues --    0.96590   0.96905   0.98547   1.00356   1.01118
 Alpha virt. eigenvalues --    1.02686   1.03027   1.03354   1.04405   1.05244
 Alpha virt. eigenvalues --    1.05439   1.05525   1.05950   1.07395   1.07547
 Alpha virt. eigenvalues --    1.07686   1.08438   1.10005   1.10036   1.12070
 Alpha virt. eigenvalues --    1.13223   1.13544   1.13650   1.14526   1.15341
 Alpha virt. eigenvalues --    1.17432   1.18332   1.19657   1.20432   1.23014
 Alpha virt. eigenvalues --    1.23618   1.27884   1.28234   1.30579   1.32076
 Alpha virt. eigenvalues --    1.32743   1.34942   1.37641   1.39236   1.39896
 Alpha virt. eigenvalues --    1.39942   1.40725   1.42751   1.43476   1.43554
 Alpha virt. eigenvalues --    1.45057   1.46086   1.47119   1.47538   1.48841
 Alpha virt. eigenvalues --    1.49280   1.49417   1.50258   1.50674   1.52268
 Alpha virt. eigenvalues --    1.52650   1.53402   1.54331   1.54372   1.54781
 Alpha virt. eigenvalues --    1.54807   1.57107   1.57715   1.58569   1.59882
 Alpha virt. eigenvalues --    1.60106   1.62692   1.63242   1.64856   1.66641
 Alpha virt. eigenvalues --    1.69292   1.69605   1.69709   1.70649   1.71804
 Alpha virt. eigenvalues --    1.72459   1.72619   1.73075   1.73096   1.73680
 Alpha virt. eigenvalues --    1.77494   1.78519   1.79157   1.79419   1.80511
 Alpha virt. eigenvalues --    1.81616   1.81887   1.82058   1.83581   1.84039
 Alpha virt. eigenvalues --    1.85487   1.87392   1.87456   1.87577   1.87728
 Alpha virt. eigenvalues --    1.88131   1.88613   1.90743   1.91387   1.92190
 Alpha virt. eigenvalues --    1.92193   1.92572   1.92670   1.93517   1.93938
 Alpha virt. eigenvalues --    1.94544   1.95483   1.97262   1.99429   2.00088
 Alpha virt. eigenvalues --    2.00602   2.01362   2.03019   2.05757   2.08293
 Alpha virt. eigenvalues --    2.09111   2.09256   2.09792   2.12192   2.14098
 Alpha virt. eigenvalues --    2.15528   2.15584   2.17200   2.19751   2.20833
 Alpha virt. eigenvalues --    2.21576   2.22525   2.23381   2.24503   2.26441
 Alpha virt. eigenvalues --    2.26972   2.27242   2.27719   2.28046   2.29391
 Alpha virt. eigenvalues --    2.33301   2.35725   2.39155   2.39384   2.40817
 Alpha virt. eigenvalues --    2.42649   2.43076   2.45776   2.45994   2.46870
 Alpha virt. eigenvalues --    2.51623   2.51954   2.53354   2.53485   2.55138
 Alpha virt. eigenvalues --    2.56159   2.58701   2.58838   2.59764   2.59776
 Alpha virt. eigenvalues --    2.60682   2.61147   2.61719   2.62222   2.63349
 Alpha virt. eigenvalues --    2.63999   2.64478   2.66054   2.66794   2.67121
 Alpha virt. eigenvalues --    2.67374   2.68356   2.68872   2.68876   2.69372
 Alpha virt. eigenvalues --    2.69557   2.69907   2.70083   2.70281   2.73482
 Alpha virt. eigenvalues --    2.74771   2.74836   2.76066   2.77101   2.77577
 Alpha virt. eigenvalues --    2.78232   2.78455   2.78850   2.80822   2.82359
 Alpha virt. eigenvalues --    2.85535   2.85993   2.86737   2.87294   2.90966
 Alpha virt. eigenvalues --    2.91783   2.92195   2.93676   2.95232   2.95887
 Alpha virt. eigenvalues --    2.99270   2.99858   3.03165   3.05604   3.06852
 Alpha virt. eigenvalues --    3.07371   3.15988   3.16029   3.16647   3.19843
 Alpha virt. eigenvalues --    3.20017   3.23601   3.29134   3.29680   3.31610
 Alpha virt. eigenvalues --    3.35095   3.35458   3.35677   3.35858   3.38023
 Alpha virt. eigenvalues --    3.39887   3.41413   3.44960   3.45362   3.47993
 Alpha virt. eigenvalues --    3.48278   3.50401   3.53073   3.57439   3.58649
 Alpha virt. eigenvalues --    3.61466   3.62620   3.63208   3.63698   3.65910
 Alpha virt. eigenvalues --    3.67534   3.67678   4.00384   4.00442   4.01859
 Alpha virt. eigenvalues --    4.02182   4.16133   4.16678   4.17360   4.21240
 Alpha virt. eigenvalues --    4.22396   4.22517   4.25488   4.38492   4.62290
 Alpha virt. eigenvalues --    4.79179   4.79740   4.80562   4.82562   4.83014
 Alpha virt. eigenvalues --   23.39176  23.54541  23.69085  23.77378  23.80419
 Alpha virt. eigenvalues --   23.81537  23.86099  23.89067  23.89154  23.92210
 Alpha virt. eigenvalues --   23.97563  23.98365  24.09049  24.09932  24.10529
 Alpha virt. eigenvalues --   24.12220  24.13779  24.14375  24.15775  24.15810
 Alpha virt. eigenvalues --   24.20452  24.20497
          Condensed to atoms (all electrons):
 Mulliken charges:
               1
     1  C    0.000000
     2  C    0.000000
     3  C    0.000000
     4  C    0.000000
     5  C    0.000000
     6  C    0.000000
     7  C    0.000000
     8  C    0.000000
     9  C    0.000000
    10  C    0.000000
    11  H    0.000000
    12  H    0.000000
    13  H    0.000000
    14  H    0.000000
    15  H    0.000000
    16  H    0.000000
    17  C    0.000000
    18  C    0.000000
    19  C    0.000000
    20  C    0.000000
    21  H    0.000000
    22  H    0.000000
    23  C    0.000000
    24  C    0.000000
    25  C    0.000000
    26  C    0.000000
    27  H    0.000000
    28  H    0.000000
    29  C    0.000000
    30  C    0.000000
    31  C    0.000000
    32  C    0.000000
    33  H    0.000000
    34  H    0.000000
    35  H    0.000000
    36  H    0.000000
    37  C   -0.059168
    38  C   -0.059168
    39  C   -0.055977
    40  C   -0.055977
    41  C   -0.092198
    42  C   -0.092198
    43  C   -0.016525
    44  C   -0.054498
    45  C   -0.016525
    46  C   -0.054498
    47  H    0.082122
    48  H    0.074853
    49  H    0.074853
    50  H    0.082122
    51  H    0.094847
    52  H    0.094847
    53  C   -0.020341
    54  C   -0.054498
    55  C   -0.020341
    56  C   -0.054498
    57  H    0.073428
    58  H    0.073428
    59  C   -0.016525
    60  C   -0.059168
    61  C   -0.016525
    62  C   -0.059168
    63  H    0.074853
    64  H    0.074853
    65  C   -0.055977
    66  C   -0.092198
    67  C   -0.055977
    68  C   -0.092198
    69  H    0.082122
    70  H    0.094847
    71  H    0.094847
    72  H    0.082122
 Sum of Mulliken charges =   0.00000
 Mulliken charges with hydrogens summed into heavy atoms:
               1
     1  C    0.000000
     2  C    0.000000
     3  C    0.000000
     4  C    0.000000
     5  C    0.000000
     6  C    0.000000
     7  C    0.000000
     8  C    0.000000
     9  C    0.000000
    10  C    0.000000
    17  C    0.000000
    18  C    0.000000
    19  C    0.000000
    20  C    0.000000
    23  C    0.000000
    24  C    0.000000
    25  C    0.000000
    26  C    0.000000
    29  C    0.000000
    30  C    0.000000
    31  C    0.000000
    32  C    0.000000
    37  C   -0.059168
    38  C   -0.059168
    39  C    0.026144
    40  C    0.026144
    41  C    0.002649
    42  C    0.002649
    43  C    0.058328
    44  C   -0.054498
    45  C    0.058328
    46  C   -0.054498
    53  C    0.053087
    54  C   -0.054498
    55  C    0.053087
    56  C   -0.054498
    59  C    0.058328
    60  C   -0.059168
    61  C    0.058328
    62  C   -0.059168
    65  C    0.026144
    66  C    0.002649
    67  C    0.026144
    68  C    0.002649
         Mulliken charges condensed to fragments:
      1      0.000000
      2      0.000000
 Electronic spatial extent (au):  <R**2>=          11383.6872
 Charge=              0.0000 electrons
 Dipole moment (field-independent basis, Debye):
    X=              0.0000    Y=              0.0000    Z=              0.0000  Tot=              0.0000
 Quadrupole moment (field-independent basis, Debye-Ang):
   XX=           -136.3921   YY=           -110.7480   ZZ=           -109.0115
   XY=              0.0000   XZ=              0.0000   YZ=              0.0000
 Traceless Quadrupole moment (field-independent basis, Debye-Ang):
   XX=            -17.6749   YY=              7.9692   ZZ=              9.7057
   XY=              0.0000   XZ=              0.0000   YZ=              0.0000
 Octapole moment (field-independent basis, Debye-Ang**2):
  XXX=            578.6625  YYY=            469.8641  ZZZ=              0.0000  XYY=            156.6214
  XXY=            192.8875  XXZ=              0.0000  XZZ=            154.1655  YZZ=            154.1655
  YYZ=              0.0000  XYZ=              0.0000
 Hexadecapole moment (field-independent basis, Debye-Ang**3):
 XXXX=          -1791.1085 YYYY=          -2445.6933 ZZZZ=         -10461.4324 XXXY=           -818.3523
 XXXZ=              0.0000 YYYX=           -664.4882 YYYZ=              0.0000 ZZZX=              0.0000
 ZZZY=              0.0000 XXYY=           -750.6955 XXZZ=          -2425.9549 YYZZ=          -2187.2373
 XXYZ=              0.0000 YYXZ=              0.0000 ZZXY=           -218.0229
 N-N= 1.494327112139D+03 E-N=-4.953709175830D+03  KE= 8.433374905080D+02
 Symmetry A'   KE= 4.567052305447D+02
 Symmetry A"   KE= 3.866322599633D+02
 No NMR shielding tensors so no spin-rotation constants.
 Leave Link  601 at Wed Sep 27 16:58:22 2023, MaxMem=  3221225472 cpu:              19.3 elap:               0.5
 (Enter /home/center/opt/aarch64/apps/gaussian16/c01/g16/l122.exe)
 CPIOFr:  IOpCl= 0 IRwI=-1 IRwCP=  731 ICalc=  4 LCPTot=     1419224 Len1MO=     3708034 IndFrg=    19959394
 Restoring MOs from calculation   1 to rwf.
 CPIOFr:  IOpCl= 0 IRwI=-2 IRwCP=  731 ICalc=  0 LCPTot=     1419224 Len1MO=     3708034 IndFrg=     5127258
 Counterpoise corrected energy =   -1694.032363904525
                   BSSE energy =       0.006927890084
              sum of fragments =   -1694.039683044256
           complexation energy =       0.25 kcal/mole (raw)
           complexation energy =       4.59 kcal/mole (corrected)
 Leave Link  122 at Wed Sep 27 16:58:25 2023, MaxMem=  3221225472 cpu:               8.3 elap:               0.6
 (Enter /home/center/opt/aarch64/apps/gaussian16/c01/g16/l9999.exe)

 Test job not archived.
 1\1\GINC-FX0385\SP\RB3LYP\6-311G(d,p)\C44H28\Z40145W\27-Sep-2023\0\\#P
  TEST b3lyp/6-311G** EmpiricalDispersion=GD3 counterpoise=2\\pentacene
 _A1=0_A2=0_A3=45_p2\\0,1\C,0,-0.5039478476,0.5239478476,-3.6612755801\
 C,0,0.5239480325,-0.5039480325,-3.6612755629\C,0,-0.9861248463,1.00612
 48463,-4.9235927708\C,0,1.0061250889,-0.9861250889,-4.9235926697\C,0,-
 0.4963213507,0.5163213507,-6.096356521\C,0,0.5163216812,-0.4963216812,
 -6.0963564796\C,0,-0.9844684311,1.0044684311,-2.4533174875\C,0,-0.5044
 88426,0.524488426,-1.2140288145\C,0,1.0044685359,-0.9844685359,-2.4533
 173917\C,0,0.5244885437,-0.5044885437,-1.2140288362\H,0,-1.7533559667,
 1.7733559667,-4.9232600459\H,0,-1.7521866813,1.7721866813,-2.453928581
 5\H,0,1.7721859268,-1.7521859268,-2.4539284818\H,0,1.7733558421,-1.753
 3558421,-4.9232597785\H,0,0.8905568758,-0.8705568758,-7.0425276922\H,0
 ,-0.8705565046,0.8905565046,-7.042527775\C,0,-0.9848184961,1.004818496
 1,0.0099998782\C,0,-0.5044883957,0.5244883957,1.2340295553\C,0,1.00481
 85643,-0.9848185643,0.0099998696\C,0,0.5244885146,-0.5044885146,1.2340
 295261\H,0,-1.7524699697,1.7724699697,0.0099999205\H,0,1.772468921,-1.
 752468921,0.0099999641\C,0,-0.9844683048,1.0044683048,2.4733171385\C,0
 ,-0.5039477114,0.5239477114,3.681276331\C,0,1.0044684211,-0.9844684211
 ,2.4733170835\C,0,0.5239479079,-0.5039479079,3.6812763217\H,0,-1.75218
 65527,1.7721865527,2.4739285326\H,0,1.7721858092,-1.7521858092,2.47392
 83796\C,0,-0.9861245177,1.0061245177,4.9435920588\C,0,-0.4963209372,0.
 5163209372,6.116356633\C,0,1.0061247659,-0.9861247659,4.9435919377\C,0
 ,0.5163212637,-0.4963212637,6.1163566075\H,0,-1.7533556504,1.773355650
 4,4.9432601504\H,0,-0.8705567426,0.8905567426,7.0625274368\H,0,0.89055
 70967,-0.8705570967,7.0625272142\H,0,1.7733555414,-1.7533555414,4.9432
 599297\C,0,3.4960521524,0.5239478476,-3.6612755801\C,0,4.5239480325,-0
 .5039480325,-3.6612755629\C,0,3.0138751537,1.0061248463,-4.9235927708\
 C,0,5.0061250889,-0.9861250889,-4.9235926697\C,0,3.5036786493,0.516321
 3507,-6.096356521\C,0,4.5163216812,-0.4963216812,-6.0963564796\C,0,3.0
 155315689,1.0044684311,-2.4533174875\C,0,3.495511574,0.524488426,-1.21
 40288145\C,0,5.0044685359,-0.9844685359,-2.4533173917\C,0,4.5244885437
 ,-0.5044885437,-1.2140288362\H,0,2.2466440333,1.7733559667,-4.92326004
 59\H,0,2.2478133187,1.7721866813,-2.4539285815\H,0,5.7721859268,-1.752
 1859268,-2.4539284818\H,0,5.7733558421,-1.7533558421,-4.9232597785\H,0
 ,4.8905568758,-0.8705568758,-7.0425276922\H,0,3.1294434954,0.890556504
 6,-7.042527775\C,0,3.0151815039,1.0048184961,0.0099998782\C,0,3.495511
 6043,0.5244883957,1.2340295553\C,0,5.0048185643,-0.9848185643,0.009999
 8696\C,0,4.5244885146,-0.5044885146,1.2340295261\H,0,2.2475300303,1.77
 24699697,0.0099999205\H,0,5.772468921,-1.752468921,0.0099999641\C,0,3.
 0155316952,1.0044683048,2.4733171385\C,0,3.4960522886,0.5239477114,3.6
 81276331\C,0,5.0044684211,-0.9844684211,2.4733170835\C,0,4.5239479079,
 -0.5039479079,3.6812763217\H,0,2.2478134473,1.7721865527,2.4739285326\
 H,0,5.7721858092,-1.7521858092,2.4739283796\C,0,3.0138754823,1.0061245
 177,4.9435920588\C,0,3.5036790628,0.5163209372,6.116356633\C,0,5.00612
 47659,-0.9861247659,4.9435919377\C,0,4.5163212637,-0.4963212637,6.1163
 566075\H,0,2.2466443496,1.7733556504,4.9432601504\H,0,3.1294432574,0.8
 905567426,7.0625274368\H,0,4.8905570967,-0.8705570967,7.0625272142\H,0
 ,5.7733555414,-1.7533555414,4.9432599297\\Version=Fujitsu-Arm-G16RevC.
 01\State=1-A'\HF=-847.0198415\RMSD=3.181e-09\Dipole=0.0000028,-0.00000
 24,0.\Quadrupole=-9.7924476,-5.3262311,15.1186787,-17.4355383,0.,0.\PG
 =CS [SG(C4H4),X(C40H24)]\\@


 If fifty million people say a stupid thing,
 it is still a stupid thing.
                   -- Anatole France
 Job cpu time:       0 days  3 hours 59 minutes 44.1 seconds.
 Elapsed time:       0 days  0 hours  6 minutes  8.9 seconds.
 File lengths (MBytes):  RWF=    718 Int=      0 D2E=      0 Chk=    208 Scr=      1
 Normal termination of Gaussian 16 at Wed Sep 27 16:58:31 2023.
