 Entering Gaussian System, Link 0=g16
 Initial command:
 /home/center/opt/aarch64/apps/gaussian16/c01/g16/l1.exe "/data/tmp/Gtmp/1006947/Gau-49.inp" -scrdir="/data/tmp/Gtmp/1006947/"
 Entering Link 1 = /home/center/opt/aarch64/apps/gaussian16/c01/g16/l1.exe PID=        50.
  
 Copyright (c) 1988-2019, Gaussian, Inc.  All Rights Reserved.
  
 This is part of the Gaussian(R) 16 program.  It is based on
 the Gaussian(R) 09 system (copyright 2009, Gaussian, Inc.),
 the Gaussian(R) 03 system (copyright 2003, Gaussian, Inc.),
 the Gaussian(R) 98 system (copyright 1998, Gaussian, Inc.),
 the Gaussian(R) 94 system (copyright 1995, Gaussian, Inc.),
 the Gaussian 92(TM) system (copyright 1992, Gaussian, Inc.),
 the Gaussian 90(TM) system (copyright 1990, Gaussian, Inc.),
 the Gaussian 88(TM) system (copyright 1988, Gaussian, Inc.),
 the Gaussian 86(TM) system (copyright 1986, Carnegie Mellon
 University), and the Gaussian 82(TM) system (copyright 1983,
 Carnegie Mellon University). Gaussian is a federally registered
 trademark of Gaussian, Inc.
  
 This software contains proprietary and confidential information,
 including trade secrets, belonging to Gaussian, Inc.
  
 This software is provided under written license and may be
 used, copied, transmitted, or stored only in accord with that
 written license.
  
 The following legend is applicable only to US Government
 contracts under FAR:
  
                    RESTRICTED RIGHTS LEGEND
  
 Use, reproduction and disclosure by the US Government is
 subject to restrictions as set forth in subparagraphs (a)
 and (c) of the Commercial Computer Software - Restricted
 Rights clause in FAR 52.227-19.
  
 Gaussian, Inc.
 340 Quinnipiac St., Bldg. 40, Wallingford CT 06492
  
  
 ---------------------------------------------------------------
 Warning -- This program may not be used in any manner that
 competes with the business of Gaussian, Inc. or will provide
 assistance to any competitor of Gaussian, Inc.  The licensee
 of this program is prohibited from giving any competitor of
 Gaussian, Inc. access to this program.  By using this program,
 the user acknowledges that Gaussian, Inc. is engaged in the
 business of creating and licensing software in the field of
 computational chemistry and represents and warrants to the
 licensee that it is not a competitor of Gaussian, Inc. and that
 it will not use this program in any manner prohibited above.
 ---------------------------------------------------------------
  

 Cite this work as:
 Gaussian 16, Revision C.01,
 M. J. Frisch, G. W. Trucks, H. B. Schlegel, G. E. Scuseria, 
 M. A. Robb, J. R. Cheeseman, G. Scalmani, V. Barone, 
 G. A. Petersson, H. Nakatsuji, X. Li, M. Caricato, A. V. Marenich, 
 J. Bloino, B. G. Janesko, R. Gomperts, B. Mennucci, H. P. Hratchian, 
 J. V. Ortiz, A. F. Izmaylov, J. L. Sonnenberg, D. Williams-Young, 
 F. Ding, F. Lipparini, F. Egidi, J. Goings, B. Peng, A. Petrone, 
 T. Henderson, D. Ranasinghe, V. G. Zakrzewski, J. Gao, N. Rega, 
 G. Zheng, W. Liang, M. Hada, M. Ehara, K. Toyota, R. Fukuda, 
 J. Hasegawa, M. Ishida, T. Nakajima, Y. Honda, O. Kitao, H. Nakai, 
 T. Vreven, K. Throssell, J. A. Montgomery, Jr., J. E. Peralta, 
 F. Ogliaro, M. J. Bearpark, J. J. Heyd, E. N. Brothers, K. N. Kudin, 
 V. N. Staroverov, T. A. Keith, R. Kobayashi, J. Normand, 
 K. Raghavachari, A. P. Rendell, J. C. Burant, S. S. Iyengar, 
 J. Tomasi, M. Cossi, J. M. Millam, M. Klene, C. Adamo, R. Cammi, 
 J. W. Ochterski, R. L. Martin, K. Morokuma, O. Farkas, 
 J. B. Foresman, and D. J. Fox, Gaussian, Inc., Wallingford CT, 2019.
 
 ************************************************
 Gaussian 16:  Fujitsu-Arm-G16RevC.01  3-Jul-2019
                   27-Sep-2023 
 ************************************************
 %mem=24GB
 %nproc=42
 Will use up to   42 processors via shared memory.
 -------------------------------------------------------------
 #P TEST b3lyp/6-311G** EmpiricalDispersion=GD3 counterpoise=2
 -------------------------------------------------------------
 1/38=1,62=2,172=1/1;
 2/12=2,17=6,18=5,40=1/2;
 1/38=1,53=2,62=2,63=1/22;
 3/5=4,6=6,7=101,11=2,25=1,30=1,74=-5,124=31/1,2,3;
 4//1;
 5/5=2,38=5/2;
 6/7=2,8=2,9=2,10=2,28=1/1;
 1/53=2,62=2,63=1/22;
 3/5=7,6=11,7=101,11=2,25=1,30=1,74=-5,82=7,124=31/1,2,3;
 4//1;
 5/5=2,38=5/2;
 6/7=2,8=2,9=2,10=2,28=1/1;
 1/53=2,62=2,63=1/22(-4);
 99/5=1,9=1/99;
 Leave Link    1 at Wed Sep 27 16:37:42 2023, MaxMem=  3221225472 cpu:               1.9 elap:               0.2
 (Enter /home/center/opt/aarch64/apps/gaussian16/c01/g16/l101.exe)
 ----------------------------
 pentacene_A1=0_A2=0_A3=45_t1
 ----------------------------
 Symbolic Z-matrix:
 Charge =  0 Multiplicity = 1 in supermolecule
 Charge =  0 Multiplicity = 1 in fragment      1.
 Charge =  0 Multiplicity = 1 in fragment      2.
 C(Fragment=1)        -0.50395   0.52395  -3.66128 
 C(Fragment=1)         0.52395  -0.50395  -3.66128 
 C(Fragment=1)        -0.98612   1.00612  -4.92359 
 C(Fragment=1)         1.00613  -0.98613  -4.92359 
 C(Fragment=1)        -0.49632   0.51632  -6.09636 
 C(Fragment=1)         0.51632  -0.49632  -6.09636 
 C(Fragment=1)        -0.98447   1.00447  -2.45332 
 C(Fragment=1)        -0.50449   0.52449  -1.21403 
 C(Fragment=1)         1.00447  -0.98447  -2.45332 
 C(Fragment=1)         0.52449  -0.50449  -1.21403 
 H(Fragment=1)        -1.75336   1.77336  -4.92326 
 H(Fragment=1)        -1.75219   1.77219  -2.45393 
 H(Fragment=1)         1.77219  -1.75219  -2.45393 
 H(Fragment=1)         1.77336  -1.75336  -4.92326 
 H(Fragment=1)         0.89056  -0.87056  -7.04253 
 H(Fragment=1)        -0.87056   0.89056  -7.04253 
 C(Fragment=1)        -0.98482   1.00482   0.01 
 C(Fragment=1)        -0.50449   0.52449   1.23403 
 C(Fragment=1)         1.00482  -0.98482   0.01 
 C(Fragment=1)         0.52449  -0.50449   1.23403 
 H(Fragment=1)        -1.75247   1.77247   0.01 
 H(Fragment=1)         1.77247  -1.75247   0.01 
 C(Fragment=1)        -0.98447   1.00447   2.47332 
 C(Fragment=1)        -0.50395   0.52395   3.68128 
 C(Fragment=1)         1.00447  -0.98447   2.47332 
 C(Fragment=1)         0.52395  -0.50395   3.68128 
 H(Fragment=1)        -1.75219   1.77219   2.47393 
 H(Fragment=1)         1.77219  -1.75219   2.47393 
 C(Fragment=1)        -0.98612   1.00612   4.94359 
 C(Fragment=1)        -0.49632   0.51632   6.11636 
 C(Fragment=1)         1.00612  -0.98612   4.94359 
 C(Fragment=1)         0.51632  -0.49632   6.11636 
 H(Fragment=1)        -1.75336   1.77336   4.94326 
 H(Fragment=1)        -0.87056   0.89056   7.06253 
 H(Fragment=1)         0.89056  -0.87056   7.06253 
 H(Fragment=1)         1.77336  -1.75336   4.94326 
 C(Fragment=2)         3.77395   3.77395  -3.66128 
 C(Fragment=2)         2.74605   2.74605  -3.66128 
 C(Fragment=2)         4.25612   4.25612  -4.92359 
 C(Fragment=2)         2.26387   2.26387  -4.92359 
 C(Fragment=2)         3.76632   3.76632  -6.09636 
 C(Fragment=2)         2.75368   2.75368  -6.09636 
 C(Fragment=2)         4.25447   4.25447  -2.45332 
 C(Fragment=2)         3.77449   3.77449  -1.21403 
 C(Fragment=2)         2.26553   2.26553  -2.45332 
 C(Fragment=2)         2.74551   2.74551  -1.21403 
 H(Fragment=2)         5.02336   5.02336  -4.92326 
 H(Fragment=2)         5.02219   5.02219  -2.45393 
 H(Fragment=2)         1.49781   1.49781  -2.45393 
 H(Fragment=2)         1.49664   1.49664  -4.92326 
 H(Fragment=2)         2.37944   2.37944  -7.04253 
 H(Fragment=2)         4.14056   4.14056  -7.04253 
 C(Fragment=2)         4.25482   4.25482   0.01 
 C(Fragment=2)         3.77449   3.77449   1.23403 
 C(Fragment=2)         2.26518   2.26518   0.01 
 C(Fragment=2)         2.74551   2.74551   1.23403 
 H(Fragment=2)         5.02247   5.02247   0.01 
 H(Fragment=2)         1.49753   1.49753   0.01 
 C(Fragment=2)         4.25447   4.25447   2.47332 
 C(Fragment=2)         3.77395   3.77395   3.68128 
 C(Fragment=2)         2.26553   2.26553   2.47332 
 C(Fragment=2)         2.74605   2.74605   3.68128 
 H(Fragment=2)         5.02219   5.02219   2.47393 
 H(Fragment=2)         1.49781   1.49781   2.47393 
 C(Fragment=2)         4.25612   4.25612   4.94359 
 C(Fragment=2)         3.76632   3.76632   6.11636 
 C(Fragment=2)         2.26388   2.26388   4.94359 
 C(Fragment=2)         2.75368   2.75368   6.11636 
 H(Fragment=2)         5.02336   5.02336   4.94326 
 H(Fragment=2)         4.14056   4.14056   7.06253 
 H(Fragment=2)         2.37944   2.37944   7.06253 
 H(Fragment=2)         1.49664   1.49664   4.94326 
 
 ITRead=  0  0  0  0  0  0  0  0  0  0  0  0  0  0  0  0  0  0  0  0
 ITRead=  0  0  0  0  0  0  0  0  0  0  0  0  0  0  0  0  0  0  0  0
 ITRead=  0  0  0  0  0  0  0  0  0  0  0  0  0  0  0  0  0  0  0  0
 ITRead=  0  0  0  0  0  0  0  0  0  0  0  0
 MicOpt= -1 -1 -1 -1 -1 -1 -1 -1 -1 -1 -1 -1 -1 -1 -1 -1 -1 -1 -1 -1
 MicOpt= -1 -1 -1 -1 -1 -1 -1 -1 -1 -1 -1 -1 -1 -1 -1 -1 -1 -1 -1 -1
 MicOpt= -1 -1 -1 -1 -1 -1 -1 -1 -1 -1 -1 -1 -1 -1 -1 -1 -1 -1 -1 -1
 MicOpt= -1 -1 -1 -1 -1 -1 -1 -1 -1 -1 -1 -1
 NAtoms=     72 NQM=       72 NQMF=       0 NMMI=      0 NMMIF=      0
                NMic=       0 NMicF=      0.
                    Isotopes and Nuclear Properties:
 (Nuclear quadrupole moments (NQMom) in fm**2, nuclear magnetic moments (NMagM)
  in nuclear magnetons)

  Atom         1           2           3           4           5           6           7           8           9          10
 IAtWgt=          12          12          12          12          12          12          12          12          12          12
 AtmWgt=  12.0000000  12.0000000  12.0000000  12.0000000  12.0000000  12.0000000  12.0000000  12.0000000  12.0000000  12.0000000
 NucSpn=           0           0           0           0           0           0           0           0           0           0
 AtZEff=   0.0000000   0.0000000   0.0000000   0.0000000   0.0000000   0.0000000   0.0000000   0.0000000   0.0000000   0.0000000
 NQMom=    0.0000000   0.0000000   0.0000000   0.0000000   0.0000000   0.0000000   0.0000000   0.0000000   0.0000000   0.0000000
 NMagM=    0.0000000   0.0000000   0.0000000   0.0000000   0.0000000   0.0000000   0.0000000   0.0000000   0.0000000   0.0000000
 AtZNuc=   6.0000000   6.0000000   6.0000000   6.0000000   6.0000000   6.0000000   6.0000000   6.0000000   6.0000000   6.0000000

  Atom        11          12          13          14          15          16          17          18          19          20
 IAtWgt=           1           1           1           1           1           1          12          12          12          12
 AtmWgt=   1.0078250   1.0078250   1.0078250   1.0078250   1.0078250   1.0078250  12.0000000  12.0000000  12.0000000  12.0000000
 NucSpn=           1           1           1           1           1           1           0           0           0           0
 AtZEff=   0.0000000   0.0000000   0.0000000   0.0000000   0.0000000   0.0000000   0.0000000   0.0000000   0.0000000   0.0000000
 NQMom=    0.0000000   0.0000000   0.0000000   0.0000000   0.0000000   0.0000000   0.0000000   0.0000000   0.0000000   0.0000000
 NMagM=    2.7928460   2.7928460   2.7928460   2.7928460   2.7928460   2.7928460   0.0000000   0.0000000   0.0000000   0.0000000
 AtZNuc=   1.0000000   1.0000000   1.0000000   1.0000000   1.0000000   1.0000000   6.0000000   6.0000000   6.0000000   6.0000000

  Atom        21          22          23          24          25          26          27          28          29          30
 IAtWgt=           1           1          12          12          12          12           1           1          12          12
 AtmWgt=   1.0078250   1.0078250  12.0000000  12.0000000  12.0000000  12.0000000   1.0078250   1.0078250  12.0000000  12.0000000
 NucSpn=           1           1           0           0           0           0           1           1           0           0
 AtZEff=   0.0000000   0.0000000   0.0000000   0.0000000   0.0000000   0.0000000   0.0000000   0.0000000   0.0000000   0.0000000
 NQMom=    0.0000000   0.0000000   0.0000000   0.0000000   0.0000000   0.0000000   0.0000000   0.0000000   0.0000000   0.0000000
 NMagM=    2.7928460   2.7928460   0.0000000   0.0000000   0.0000000   0.0000000   2.7928460   2.7928460   0.0000000   0.0000000
 AtZNuc=   1.0000000   1.0000000   6.0000000   6.0000000   6.0000000   6.0000000   1.0000000   1.0000000   6.0000000   6.0000000

  Atom        31          32          33          34          35          36          37          38          39          40
 IAtWgt=          12          12           1           1           1           1          12          12          12          12
 AtmWgt=  12.0000000  12.0000000   1.0078250   1.0078250   1.0078250   1.0078250  12.0000000  12.0000000  12.0000000  12.0000000
 NucSpn=           0           0           1           1           1           1           0           0           0           0
 AtZEff=   0.0000000   0.0000000   0.0000000   0.0000000   0.0000000   0.0000000   0.0000000   0.0000000   0.0000000   0.0000000
 NQMom=    0.0000000   0.0000000   0.0000000   0.0000000   0.0000000   0.0000000   0.0000000   0.0000000   0.0000000   0.0000000
 NMagM=    0.0000000   0.0000000   2.7928460   2.7928460   2.7928460   2.7928460   0.0000000   0.0000000   0.0000000   0.0000000
 AtZNuc=   6.0000000   6.0000000   1.0000000   1.0000000   1.0000000   1.0000000   6.0000000   6.0000000   6.0000000   6.0000000

  Atom        41          42          43          44          45          46          47          48          49          50
 IAtWgt=          12          12          12          12          12          12           1           1           1           1
 AtmWgt=  12.0000000  12.0000000  12.0000000  12.0000000  12.0000000  12.0000000   1.0078250   1.0078250   1.0078250   1.0078250
 NucSpn=           0           0           0           0           0           0           1           1           1           1
 AtZEff=   0.0000000   0.0000000   0.0000000   0.0000000   0.0000000   0.0000000   0.0000000   0.0000000   0.0000000   0.0000000
 NQMom=    0.0000000   0.0000000   0.0000000   0.0000000   0.0000000   0.0000000   0.0000000   0.0000000   0.0000000   0.0000000
 NMagM=    0.0000000   0.0000000   0.0000000   0.0000000   0.0000000   0.0000000   2.7928460   2.7928460   2.7928460   2.7928460
 AtZNuc=   6.0000000   6.0000000   6.0000000   6.0000000   6.0000000   6.0000000   1.0000000   1.0000000   1.0000000   1.0000000

  Atom        51          52          53          54          55          56          57          58          59          60
 IAtWgt=           1           1          12          12          12          12           1           1          12          12
 AtmWgt=   1.0078250   1.0078250  12.0000000  12.0000000  12.0000000  12.0000000   1.0078250   1.0078250  12.0000000  12.0000000
 NucSpn=           1           1           0           0           0           0           1           1           0           0
 AtZEff=   0.0000000   0.0000000   0.0000000   0.0000000   0.0000000   0.0000000   0.0000000   0.0000000   0.0000000   0.0000000
 NQMom=    0.0000000   0.0000000   0.0000000   0.0000000   0.0000000   0.0000000   0.0000000   0.0000000   0.0000000   0.0000000
 NMagM=    2.7928460   2.7928460   0.0000000   0.0000000   0.0000000   0.0000000   2.7928460   2.7928460   0.0000000   0.0000000
 AtZNuc=   1.0000000   1.0000000   6.0000000   6.0000000   6.0000000   6.0000000   1.0000000   1.0000000   6.0000000   6.0000000

  Atom        61          62          63          64          65          66          67          68          69          70
 IAtWgt=          12          12           1           1          12          12          12          12           1           1
 AtmWgt=  12.0000000  12.0000000   1.0078250   1.0078250  12.0000000  12.0000000  12.0000000  12.0000000   1.0078250   1.0078250
 NucSpn=           0           0           1           1           0           0           0           0           1           1
 AtZEff=   0.0000000   0.0000000   0.0000000   0.0000000   0.0000000   0.0000000   0.0000000   0.0000000   0.0000000   0.0000000
 NQMom=    0.0000000   0.0000000   0.0000000   0.0000000   0.0000000   0.0000000   0.0000000   0.0000000   0.0000000   0.0000000
 NMagM=    0.0000000   0.0000000   2.7928460   2.7928460   0.0000000   0.0000000   0.0000000   0.0000000   2.7928460   2.7928460
 AtZNuc=   6.0000000   6.0000000   1.0000000   1.0000000   6.0000000   6.0000000   6.0000000   6.0000000   1.0000000   1.0000000

  Atom        71          72
 IAtWgt=           1           1
 AtmWgt=   1.0078250   1.0078250
 NucSpn=           1           1
 AtZEff=   0.0000000   0.0000000
 NQMom=    0.0000000   0.0000000
 NMagM=    2.7928460   2.7928460
 AtZNuc=   1.0000000   1.0000000
 Leave Link  101 at Wed Sep 27 16:37:44 2023, MaxMem=  3221225472 cpu:               1.9 elap:               0.1
 (Enter /home/center/opt/aarch64/apps/gaussian16/c01/g16/l202.exe)
 Stoichiometry    C44H28
 Framework group  CS[SG(C4H4),X(C40H24)]
 Deg. of freedom   109
 Full point group                 CS      NOp   2
 Largest Abelian subgroup         CS      NOp   2
 Largest concise Abelian subgroup CS      NOp   2
                         Standard orientation:                         
 ---------------------------------------------------------------------
 Center     Atomic      Atomic             Coordinates (Angstroms)
 Number     Number       Type             X           Y           Z
 ---------------------------------------------------------------------
      1          6           0        0.726832   -2.298097    3.671276
      2          6           0       -0.726832   -2.298097    3.671276
      3          6           0        1.408733   -2.298097    4.933593
      4          6           0       -1.408734   -2.298097    4.933593
      5          6           0        0.716047   -2.298097    6.106357
      6          6           0       -0.716047   -2.298097    6.106357
      7          6           0        1.406391   -2.298097    2.463318
      8          6           0        0.727597   -2.298097    1.224029
      9          6           0       -1.406391   -2.298097    2.463317
     10          6           0       -0.727597   -2.298097    1.224029
     11          1           0        2.493762   -2.298097    4.933260
     12          1           0        2.492108   -2.298097    2.463929
     13          1           0       -2.492107   -2.298097    2.463929
     14          1           0       -2.493762   -2.298097    4.933260
     15          1           0       -1.245295   -2.298097    7.052528
     16          1           0        1.245295   -2.298097    7.052528
     17          6           0        1.406886   -2.298097    0.000000
     18          6           0        0.727597   -2.298097   -1.224029
     19          6           0       -1.406886   -2.298097    0.000000
     20          6           0       -0.727597   -2.298097   -1.224029
     21          1           0        2.492509   -2.298097    0.000000
     22          1           0       -2.492507   -2.298097    0.000000
     23          6           0        1.406391   -2.298097   -2.463318
     24          6           0        0.726832   -2.298097   -3.671276
     25          6           0       -1.406391   -2.298097   -2.463317
     26          6           0       -0.726832   -2.298097   -3.671276
     27          1           0        2.492108   -2.298097   -2.463929
     28          1           0       -2.492107   -2.298097   -2.463929
     29          6           0        1.408733   -2.298097   -4.933593
     30          6           0        0.716047   -2.298097   -6.106357
     31          6           0       -1.408734   -2.298097   -4.933593
     32          6           0       -0.716047   -2.298097   -6.106357
     33          1           0        2.493762   -2.298097   -4.933260
     34          1           0        1.245295   -2.298097   -7.052528
     35          1           0       -1.245295   -2.298097   -7.052528
     36          1           0       -2.493762   -2.298097   -4.933260
     37          6           0        0.000000    3.024929    3.671276
     38          6           0        0.000000    1.571265    3.671276
     39          6           0        0.000000    3.706830    4.933593
     40          6           0        0.000000    0.889363    4.933593
     41          6           0        0.000000    3.014144    6.106357
     42          6           0        0.000000    1.582050    6.106357
     43          6           0        0.000000    3.704488    2.463318
     44          6           0        0.000000    3.025694    1.224029
     45          6           0        0.000000    0.891706    2.463317
     46          6           0        0.000000    1.570500    1.224029
     47          1           0        0.000000    4.791859    4.933260
     48          1           0        0.000000    4.790205    2.463929
     49          1           0        0.000000   -0.194010    2.463929
     50          1           0        0.000000   -0.195665    4.933260
     51          1           0        0.000000    1.052802    7.052528
     52          1           0        0.000000    3.543392    7.052528
     53          6           0        0.000000    3.704983    0.000000
     54          6           0        0.000000    3.025694   -1.224029
     55          6           0        0.000000    0.891211    0.000000
     56          6           0        0.000000    1.570500   -1.224029
     57          1           0        0.000000    4.790606    0.000000
     58          1           0        0.000000   -0.194410    0.000000
     59          6           0        0.000000    3.704488   -2.463318
     60          6           0        0.000000    3.024929   -3.671276
     61          6           0        0.000000    0.891706   -2.463317
     62          6           0        0.000000    1.571265   -3.671276
     63          1           0        0.000000    4.790205   -2.463929
     64          1           0        0.000000   -0.194010   -2.463929
     65          6           0        0.000000    3.706830   -4.933593
     66          6           0        0.000000    3.014144   -6.106357
     67          6           0        0.000000    0.889363   -4.933593
     68          6           0        0.000000    1.582050   -6.106357
     69          1           0        0.000000    4.791859   -4.933260
     70          1           0        0.000000    3.543392   -7.052528
     71          1           0        0.000000    1.052802   -7.052528
     72          1           0        0.000000   -0.195665   -4.933260
 ---------------------------------------------------------------------
 Rotational constants (GHZ):           0.1365352           0.0563744           0.0424609
 Leave Link  202 at Wed Sep 27 16:37:46 2023, MaxMem=  3221225472 cpu:               0.6 elap:               0.1
 (Enter /home/center/opt/aarch64/apps/gaussian16/c01/g16/l122.exe)
 Counterpoise: doing full-system calculation.
 Leave Link  122 at Wed Sep 27 16:37:48 2023, MaxMem=  3221225472 cpu:               0.2 elap:               0.0
 (Enter /home/center/opt/aarch64/apps/gaussian16/c01/g16/l301.exe)
 Standard basis: 6-311G(d,p) (5D, 7F)
 Ernie: Thresh=  0.10000D-02 Tol=  0.10000D-05 Strict=F.
 There are   528 symmetry adapted cartesian basis functions of A'  symmetry.
 There are   476 symmetry adapted cartesian basis functions of A"  symmetry.
 There are   504 symmetry adapted basis functions of A'  symmetry.
 There are   456 symmetry adapted basis functions of A"  symmetry.
   960 basis functions,  1632 primitive gaussians,  1004 cartesian basis functions
   146 alpha electrons      146 beta electrons
       nuclear repulsion energy      4795.4085966797 Hartrees.
 IExCor=  402 DFT=T Ex+Corr=B3LYP ExCW=0 ScaHFX=  0.200000
 ScaDFX=  0.800000  0.720000  1.000000  0.810000 ScalE2=  1.000000  1.000000
 IRadAn=      5 IRanWt=     -1 IRanGd=            0 ICorTp=0 IEmpDi=131
 NAtoms=   72 NActive=   72 NUniq=   40 SFac= 3.24D+00 NAtFMM=   60 NAOKFM=T Big=F
 Integral buffers will be    131072 words long.
 Raffenetti 2 integral format.
 Two-electron integral symmetry is turned on.
 R6Disp:  Grimme-D3 Dispersion energy=       -0.0960448037 Hartrees.
 Nuclear repulsion after empirical dispersion term =     4795.3125518759 Hartrees.
 Leave Link  301 at Wed Sep 27 16:37:51 2023, MaxMem=  3221225472 cpu:               2.0 elap:               0.1
 (Enter /home/center/opt/aarch64/apps/gaussian16/c01/g16/l302.exe)
 NPDir=0 NMtPBC=     1 NCelOv=     1 NCel=       1 NClECP=     1 NCelD=      1
         NCelK=      1 NCelE2=     1 NClLst=     1 CellRange=     0.0.
 One-electron integrals computed using PRISM.
 One-electron integral symmetry used in STVInt
 NBasis=   960 RedAO= T EigKep=  3.69D-05  NBF=   504   456
 NBsUse=   960 1.00D-06 EigRej= -1.00D+00 NBFU=   504   456
 Precomputing XC quadrature grid using
 IXCGrd= 4 IRadAn=           5 IRanWt=          -1 IRanGd=           0 AccXCQ= 0.00D+00.
 Generated NRdTot=       0 NPtTot=           0 NUsed=           0 NTot=          32
 NSgBfM=   991   991   991   991   991 MxSgAt=    72 MxSgA2=    72.
 Leave Link  302 at Wed Sep 27 16:37:55 2023, MaxMem=  3221225472 cpu:              64.8 elap:               2.0
 (Enter /home/center/opt/aarch64/apps/gaussian16/c01/g16/l303.exe)
 DipDrv:  MaxL=1.
 Leave Link  303 at Wed Sep 27 16:37:58 2023, MaxMem=  3221225472 cpu:              13.8 elap:               0.4
 (Enter /home/center/opt/aarch64/apps/gaussian16/c01/g16/l401.exe)
 ExpMin= 1.03D-01 ExpMax= 4.56D+03 ExpMxC= 6.82D+02 IAcc=3 IRadAn=         5 AccDes= 0.00D+00
 Harris functional with IExCor=  402 and IRadAn=       5 diagonalized for initial guess.
 HarFok:  IExCor=  402 AccDes= 0.00D+00 IRadAn=         5 IDoV= 1 UseB2=F ITyADJ=14
 ICtDFT=  3500011 ScaDFX=  1.000000  1.000000  1.000000  1.000000
 FoFCou: FMM=F IPFlag=           0 FMFlag=      100000 FMFlg1=        2000
         NFxFlg=           0 DoJE=T BraDBF=F KetDBF=T FulRan=T
         wScrn=  0.000000 ICntrl=       500 IOpCl=  0 I1Cent=   200000004 NGrid=           0
         NMat0=    1 NMatS0=      1 NMatT0=    0 NMatD0=    1 NMtDS0=    0 NMtDT0=    0
 Petite list used in FoFCou.
 Harris En= -1694.11945269594    
 JPrj=0 DoOrth=F DoCkMO=F.
 Initial guess orbital symmetries:
       Occupied  (A") (A') (A') (A") (A") (A') (A") (A') (A") (A')
                 (A") (A') (A") (A') (A") (A') (A") (A') (A') (A")
                 (A') (A') (A") (A') (A') (A") (A') (A') (A") (A')
                 (A") (A') (A") (A') (A") (A') (A') (A") (A") (A')
                 (A") (A') (A') (A") (A') (A') (A") (A") (A') (A')
                 (A") (A") (A') (A') (A') (A') (A") (A") (A') (A')
                 (A") (A") (A") (A") (A') (A') (A') (A') (A") (A")
                 (A") (A") (A') (A') (A") (A') (A") (A') (A') (A')
                 (A') (A') (A") (A") (A") (A") (A') (A") (A") (A')
                 (A') (A') (A") (A") (A') (A') (A') (A") (A') (A")
                 (A') (A') (A") (A") (A") (A") (A') (A') (A') (A')
                 (A") (A") (A') (A') (A") (A") (A") (A') (A') (A")
                 (A') (A") (A") (A') (A') (A") (A') (A") (A') (A')
                 (A") (A") (A') (A') (A") (A") (A') (A') (A') (A')
                 (A") (A") (A") (A") (A') (A')
       Virtual   (A') (A') (A") (A") (A") (A") (A') (A') (A') (A')
                 (A") (A") (A') (A') (A") (A") (A') (A") (A') (A')
                 (A') (A') (A") (A') (A") (A') (A") (A") (A') (A')
                 (A") (A") (A') (A") (A") (A") (A') (A') (A') (A')
                 (A') (A") (A') (A") (A") (A') (A") (A') (A') (A')
                 (A') (A") (A') (A") (A') (A') (A") (A") (A') (A")
                 (A') (A") (A") (A") (A') (A') (A") (A') (A") (A")
                 (A') (A") (A') (A') (A") (A') (A") (A") (A') (A')
                 (A') (A") (A') (A") (A") (A') (A") (A') (A') (A')
                 (A") (A') (A") (A') (A") (A") (A') (A") (A") (A')
                 (A') (A') (A') (A") (A") (A') (A') (A") (A') (A")
                 (A') (A") (A') (A") (A') (A') (A") (A') (A") (A')
                 (A") (A') (A") (A") (A') (A") (A') (A') (A") (A")
                 (A') (A') (A") (A') (A") (A") (A') (A') (A") (A')
                 (A') (A") (A") (A") (A') (A') (A') (A") (A') (A')
                 (A") (A') (A") (A') (A") (A") (A') (A") (A") (A')
                 (A') (A") (A') (A') (A") (A") (A') (A') (A') (A")
                 (A") (A') (A') (A') (A') (A") (A') (A") (A") (A")
                 (A") (A') (A') (A') (A") (A") (A') (A') (A") (A')
                 (A") (A') (A") (A') (A') (A") (A") (A') (A') (A")
                 (A') (A") (A') (A") (A") (A') (A") (A') (A") (A')
                 (A") (A') (A') (A") (A") (A') (A') (A") (A") (A')
                 (A') (A") (A") (A") (A') (A') (A') (A') (A') (A")
                 (A") (A') (A') (A') (A") (A") (A') (A") (A') (A")
                 (A") (A') (A") (A') (A') (A") (A") (A') (A') (A')
                 (A") (A') (A") (A") (A") (A') (A") (A') (A') (A")
                 (A') (A") (A') (A") (A") (A') (A") (A') (A") (A')
                 (A") (A') (A") (A') (A") (A') (A") (A") (A') (A')
                 (A') (A") (A") (A') (A") (A') (A") (A') (A') (A")
                 (A") (A') (A") (A') (A") (A') (A') (A') (A") (A")
                 (A') (A") (A') (A') (A") (A") (A") (A') (A') (A")
                 (A") (A") (A') (A') (A') (A') (A") (A') (A") (A")
                 (A') (A') (A') (A") (A") (A") (A') (A") (A") (A')
                 (A") (A') (A") (A') (A') (A") (A') (A') (A") (A')
                 (A') (A") (A') (A") (A") (A') (A') (A") (A") (A')
                 (A') (A') (A") (A') (A") (A') (A') (A') (A") (A")
                 (A') (A") (A") (A") (A") (A') (A") (A") (A') (A')
                 (A') (A") (A') (A') (A") (A") (A") (A') (A") (A')
                 (A') (A') (A") (A') (A') (A") (A') (A') (A") (A")
                 (A') (A') (A') (A") (A") (A') (A') (A") (A") (A')
                 (A") (A") (A') (A') (A") (A') (A") (A") (A') (A')
                 (A') (A') (A') (A') (A') (A") (A') (A") (A") (A")
                 (A') (A") (A") (A') (A") (A') (A') (A") (A") (A')
                 (A') (A") (A") (A') (A') (A") (A") (A') (A') (A")
                 (A") (A") (A') (A") (A') (A") (A') (A") (A') (A')
                 (A') (A") (A') (A") (A") (A') (A") (A") (A') (A")
                 (A') (A') (A") (A") (A') (A') (A") (A") (A') (A')
                 (A') (A") (A') (A') (A") (A") (A') (A") (A') (A")
                 (A') (A') (A") (A') (A") (A") (A") (A") (A') (A")
                 (A") (A") (A') (A") (A') (A") (A') (A') (A') (A')
                 (A") (A") (A') (A") (A') (A") (A') (A") (A') (A')
                 (A") (A") (A') (A") (A') (A') (A") (A") (A') (A')
                 (A") (A') (A") (A") (A') (A') (A") (A') (A") (A')
                 (A") (A') (A") (A') (A") (A") (A') (A") (A') (A')
                 (A") (A') (A") (A') (A') (A") (A") (A') (A") (A")
                 (A") (A') (A') (A") (A') (A") (A') (A') (A") (A')
                 (A") (A') (A') (A") (A") (A') (A") (A') (A") (A')
                 (A") (A") (A') (A") (A') (A") (A') (A') (A') (A")
                 (A") (A') (A') (A') (A') (A") (A') (A') (A") (A')
                 (A") (A") (A') (A") (A') (A") (A") (A') (A') (A")
                 (A") (A') (A") (A') (A") (A') (A') (A') (A") (A')
                 (A') (A') (A") (A") (A') (A") (A') (A') (A") (A")
                 (A") (A") (A') (A") (A') (A') (A") (A') (A') (A")
                 (A") (A") (A') (A') (A') (A') (A") (A') (A") (A")
                 (A') (A') (A") (A') (A") (A") (A') (A') (A") (A')
                 (A') (A") (A') (A") (A') (A") (A') (A') (A") (A")
                 (A") (A') (A') (A") (A') (A') (A") (A') (A") (A')
                 (A") (A') (A') (A") (A") (A") (A') (A') (A") (A")
                 (A') (A') (A') (A") (A') (A") (A") (A") (A') (A")
                 (A') (A') (A") (A") (A') (A') (A") (A') (A') (A")
                 (A") (A') (A") (A') (A") (A") (A') (A') (A") (A')
                 (A") (A') (A") (A") (A') (A') (A') (A') (A") (A")
                 (A') (A") (A") (A') (A') (A") (A') (A') (A") (A')
                 (A') (A") (A') (A") (A') (A") (A') (A") (A") (A')
                 (A') (A") (A') (A") (A') (A') (A") (A') (A') (A")
                 (A') (A') (A") (A") (A') (A") (A') (A') (A") (A")
                 (A") (A') (A") (A') (A") (A") (A') (A") (A') (A")
                 (A') (A') (A") (A") (A') (A') (A') (A") (A') (A")
                 (A") (A') (A') (A") (A") (A') (A') (A") (A') (A")
                 (A") (A") (A') (A") (A') (A') (A') (A") (A') (A")
                 (A') (A") (A') (A") (A') (A') (A") (A') (A") (A')
                 (A') (A") (A') (A")
 The electronic state of the initial guess is 1-A'.
 Leave Link  401 at Wed Sep 27 16:38:03 2023, MaxMem=  3221225472 cpu:             107.8 elap:               2.7
 (Enter /home/center/opt/aarch64/apps/gaussian16/c01/g16/l502.exe)
 Integral symmetry usage will be decided dynamically.
 Closed shell SCF:
 Using DIIS extrapolation, IDIIS=  1040.
 NGot=  3221225472 LenX=  3219153746 LenY=  3218144726
 Requested convergence on RMS density matrix=1.00D-08 within 128 cycles.
 Requested convergence on MAX density matrix=1.00D-06.
 Requested convergence on             energy=1.00D-06.
 No special actions if energy rises.
 Fock matrices will be formed incrementally for  20 cycles.
 Integral accuracy reduced to 1.0D-05 until final iterations.

 Cycle   1  Pass 0  IDiag  1:
 FoFJK:  IHMeth= 1 ICntrl=       0 DoSepK=F KAlg= 0 I1Cent=           0 FoldK=F
 IRaf= 580000000 NMat=       1 IRICut=       1 DoRegI=T DoRafI=F ISym2E= 1 IDoP0=0 IntGTp=1.
 FoFCou: FMM=F IPFlag=           0 FMFlag=      100000 FMFlg1=        2000
         NFxFlg=           0 DoJE=F BraDBF=F KetDBF=F FulRan=T
         wScrn=  0.000000 ICntrl=         0 IOpCl=  0 I1Cent=           0 NGrid=           0
         NMat0=    1 NMatS0=      1 NMatT0=    0 NMatD0=    1 NMtDS0=    0 NMtDT0=    0
 Petite list used in FoFCou.
 E= -1693.17779581046    
 DIIS: error= 4.62D-02 at cycle   1 NSaved=   1.
 NSaved= 1 IEnMin= 1 EnMin= -1693.17779581046     IErMin= 1 ErrMin= 4.62D-02
 ErrMax= 4.62D-02  0.00D+00 EMaxC= 1.00D-01 BMatC= 8.88D-01 BMatP= 8.88D-01
 IDIUse=3 WtCom= 5.38D-01 WtEn= 4.62D-01
 Coeff-Com:  0.100D+01
 Coeff-En:   0.100D+01
 Coeff:      0.100D+01
 Gap=     0.051 Goal=   None    Shift=    0.000
 GapD=    0.051 DampG=0.500 DampE=0.500 DampFc=0.2500 IDamp=-1.
 Damping current iteration by 2.50D-01
 RMSDP=1.75D-03 MaxDP=8.41D-02              OVMax= 1.57D-01

 Cycle   2  Pass 0  IDiag  1:
 RMSU=  4.24D-04    CP:  9.82D-01
 E= -1693.48046349336     Delta-E=       -0.302667682908 Rises=F Damp=T
 DIIS: error= 2.71D-02 at cycle   2 NSaved=   2.
 NSaved= 2 IEnMin= 2 EnMin= -1693.48046349336     IErMin= 2 ErrMin= 2.71D-02
 ErrMax= 2.71D-02  0.00D+00 EMaxC= 1.00D-01 BMatC= 2.99D-01 BMatP= 8.88D-01
 IDIUse=3 WtCom= 7.29D-01 WtEn= 2.71D-01
 Coeff-Com: -0.123D+01 0.223D+01
 Coeff-En:   0.000D+00 0.100D+01
 Coeff:     -0.895D+00 0.189D+01
 Gap=     0.051 Goal=   None    Shift=    0.000
 RMSDP=7.15D-04 MaxDP=3.46D-02 DE=-3.03D-01 OVMax= 1.44D-01

 Cycle   3  Pass 0  IDiag  1:
 RMSU=  4.51D-04    CP:  9.55D-01  2.25D+00
 E= -1694.03289038586     Delta-E=       -0.552426892498 Rises=F Damp=F
 DIIS: error= 6.78D-03 at cycle   3 NSaved=   3.
 NSaved= 3 IEnMin= 3 EnMin= -1694.03289038586     IErMin= 3 ErrMin= 6.78D-03
 ErrMax= 6.78D-03  0.00D+00 EMaxC= 1.00D-01 BMatC= 1.44D-02 BMatP= 2.99D-01
 IDIUse=3 WtCom= 9.32D-01 WtEn= 6.78D-02
 Coeff-Com: -0.292D+00 0.589D+00 0.703D+00
 Coeff-En:   0.000D+00 0.000D+00 0.100D+01
 Coeff:     -0.272D+00 0.549D+00 0.723D+00
 Gap=     0.061 Goal=   None    Shift=    0.000
 RMSDP=3.05D-04 MaxDP=1.97D-02 DE=-5.52D-01 OVMax= 1.71D-01

 Cycle   4  Pass 0  IDiag  1:
 RMSU=  2.61D-04    CP:  9.56D-01  2.17D+00  6.55D-01
 E= -1694.02190256045     Delta-E=        0.010987825408 Rises=F Damp=F
 DIIS: error= 1.16D-02 at cycle   4 NSaved=   4.
 NSaved= 4 IEnMin= 3 EnMin= -1694.03289038586     IErMin= 3 ErrMin= 6.78D-03
 ErrMax= 1.16D-02  0.00D+00 EMaxC= 1.00D-01 BMatC= 2.20D-02 BMatP= 1.44D-02
 IDIUse=2 WtCom= 0.00D+00 WtEn= 1.00D+00
 Coeff-En:   0.000D+00 0.000D+00 0.601D+00 0.399D+00
 Coeff:      0.000D+00 0.000D+00 0.601D+00 0.399D+00
 Gap=     0.055 Goal=   None    Shift=    0.000
 RMSDP=1.78D-04 MaxDP=1.30D-02 DE= 1.10D-02 OVMax= 1.28D-01

 Cycle   5  Pass 0  IDiag  1:
 RMSU=  8.70D-05    CP:  9.56D-01  2.14D+00  7.84D-01  4.48D-01
 E= -1694.04778227459     Delta-E=       -0.025879714137 Rises=F Damp=F
 DIIS: error= 2.00D-03 at cycle   5 NSaved=   5.
 NSaved= 5 IEnMin= 5 EnMin= -1694.04778227459     IErMin= 5 ErrMin= 2.00D-03
 ErrMax= 2.00D-03  0.00D+00 EMaxC= 1.00D-01 BMatC= 1.16D-03 BMatP= 1.44D-02
 IDIUse=3 WtCom= 9.80D-01 WtEn= 2.00D-02
 Coeff-Com: -0.169D-01 0.377D-01 0.279D+00 0.209D+00 0.491D+00
 Coeff-En:   0.000D+00 0.000D+00 0.000D+00 0.000D+00 0.100D+01
 Coeff:     -0.165D-01 0.370D-01 0.273D+00 0.204D+00 0.502D+00
 Gap=     0.056 Goal=   None    Shift=    0.000
 RMSDP=5.16D-05 MaxDP=3.85D-03 DE=-2.59D-02 OVMax= 2.86D-02

 Cycle   6  Pass 0  IDiag  1:
 RMSU=  3.55D-05    CP:  9.56D-01  2.17D+00  7.96D-01  4.80D-01  6.11D-01
 E= -1694.04854100762     Delta-E=       -0.000758733032 Rises=F Damp=F
 DIIS: error= 1.30D-03 at cycle   6 NSaved=   6.
 NSaved= 6 IEnMin= 6 EnMin= -1694.04854100762     IErMin= 6 ErrMin= 1.30D-03
 ErrMax= 1.30D-03  0.00D+00 EMaxC= 1.00D-01 BMatC= 3.84D-04 BMatP= 1.16D-03
 IDIUse=3 WtCom= 9.87D-01 WtEn= 1.30D-02
 Coeff-Com: -0.628D-02 0.975D-02 0.121D+00 0.933D-01 0.381D+00 0.401D+00
 Coeff-En:   0.000D+00 0.000D+00 0.000D+00 0.000D+00 0.303D+00 0.697D+00
 Coeff:     -0.620D-02 0.962D-02 0.119D+00 0.921D-01 0.380D+00 0.405D+00
 Gap=     0.055 Goal=   None    Shift=    0.000
 RMSDP=2.67D-05 MaxDP=1.68D-03 DE=-7.59D-04 OVMax= 1.18D-02

 Cycle   7  Pass 0  IDiag  1:
 RMSU=  9.13D-06    CP:  9.56D-01  2.17D+00  8.01D-01  4.63D-01  6.63D-01
                    CP:  3.21D-01
 E= -1694.04900272394     Delta-E=       -0.000461716316 Rises=F Damp=F
 DIIS: error= 3.39D-04 at cycle   7 NSaved=   7.
 NSaved= 7 IEnMin= 7 EnMin= -1694.04900272394     IErMin= 7 ErrMin= 3.39D-04
 ErrMax= 3.39D-04  0.00D+00 EMaxC= 1.00D-01 BMatC= 1.95D-05 BMatP= 3.84D-04
 IDIUse=3 WtCom= 9.97D-01 WtEn= 3.39D-03
 Coeff-Com: -0.178D-02 0.196D-02 0.566D-01 0.434D-01 0.203D+00 0.260D+00
 Coeff-Com:  0.438D+00
 Coeff-En:   0.000D+00 0.000D+00 0.000D+00 0.000D+00 0.000D+00 0.000D+00
 Coeff-En:   0.100D+01
 Coeff:     -0.177D-02 0.195D-02 0.564D-01 0.432D-01 0.202D+00 0.259D+00
 Coeff:      0.439D+00
 Gap=     0.055 Goal=   None    Shift=    0.000
 RMSDP=5.73D-06 MaxDP=2.19D-04 DE=-4.62D-04 OVMax= 1.25D-03

 Initial convergence to 1.0D-05 achieved.  Increase integral accuracy.
 Cycle   8  Pass 1  IDiag  1:
 E= -1694.04883182714     Delta-E=        0.000170896801 Rises=F Damp=F
 DIIS: error= 9.51D-04 at cycle   1 NSaved=   1.
 NSaved= 1 IEnMin= 1 EnMin= -1694.04883182714     IErMin= 1 ErrMin= 9.51D-04
 ErrMax= 9.51D-04  0.00D+00 EMaxC= 1.00D-01 BMatC= 4.55D-05 BMatP= 4.55D-05
 IDIUse=3 WtCom= 9.90D-01 WtEn= 9.51D-03
 Coeff-Com:  0.100D+01
 Coeff-En:   0.100D+01
 Coeff:      0.100D+01
 Gap=     0.055 Goal=   None    Shift=    0.000
 RMSDP=5.73D-06 MaxDP=2.19D-04 DE= 1.71D-04 OVMax= 1.51D-03

 Cycle   9  Pass 1  IDiag  1:
 RMSU=  3.06D-04    CP:  1.00D+00
 E= -1694.04887123693     Delta-E=       -0.000039409787 Rises=F Damp=F
 DIIS: error= 9.26D-05 at cycle   2 NSaved=   2.
 NSaved= 2 IEnMin= 2 EnMin= -1694.04887123693     IErMin= 2 ErrMin= 9.26D-05
 ErrMax= 9.26D-05  0.00D+00 EMaxC= 1.00D-01 BMatC= 2.65D-06 BMatP= 4.55D-05
 IDIUse=1 WtCom= 1.00D+00 WtEn= 0.00D+00
 Coeff-Com:  0.739D-01 0.926D+00
 Coeff:      0.739D-01 0.926D+00
 Gap=     0.055 Goal=   None    Shift=    0.000
 RMSDP=5.42D-06 MaxDP=2.23D-04 DE=-3.94D-05 OVMax= 1.48D-03

 Cycle  10  Pass 1  IDiag  1:
 RMSU=  4.72D-06    CP:  1.00D+00  1.01D+00
 E= -1694.04886413606     Delta-E=        0.000007100866 Rises=F Damp=F
 DIIS: error= 1.99D-04 at cycle   3 NSaved=   3.
 NSaved= 3 IEnMin= 2 EnMin= -1694.04887123693     IErMin= 2 ErrMin= 9.26D-05
 ErrMax= 1.99D-04  0.00D+00 EMaxC= 1.00D-01 BMatC= 8.68D-06 BMatP= 2.65D-06
 IDIUse=3 WtCom= 4.15D-01 WtEn= 5.85D-01
 Coeff-Com: -0.228D-02 0.647D+00 0.355D+00
 Coeff-En:   0.000D+00 0.727D+00 0.273D+00
 Coeff:     -0.947D-03 0.694D+00 0.307D+00
 Gap=     0.055 Goal=   None    Shift=    0.000
 RMSDP=3.07D-06 MaxDP=1.58D-04 DE= 7.10D-06 OVMax= 1.25D-03

 Cycle  11  Pass 1  IDiag  1:
 RMSU=  1.07D-06    CP:  1.00D+00  1.01D+00  4.06D-01
 E= -1694.04887374190     Delta-E=       -0.000009605838 Rises=F Damp=F
 DIIS: error= 2.67D-05 at cycle   4 NSaved=   4.
 NSaved= 4 IEnMin= 4 EnMin= -1694.04887374190     IErMin= 4 ErrMin= 2.67D-05
 ErrMax= 2.67D-05  0.00D+00 EMaxC= 1.00D-01 BMatC= 3.27D-07 BMatP= 2.65D-06
 IDIUse=1 WtCom= 1.00D+00 WtEn= 0.00D+00
 Coeff-Com: -0.369D-02 0.444D+00 0.207D+00 0.353D+00
 Coeff:     -0.369D-02 0.444D+00 0.207D+00 0.353D+00
 Gap=     0.055 Goal=   None    Shift=    0.000
 RMSDP=5.81D-07 MaxDP=3.69D-05 DE=-9.61D-06 OVMax= 2.45D-04

 Cycle  12  Pass 1  IDiag  1:
 RMSU=  3.74D-07    CP:  1.00D+00  1.01D+00  3.61D-01  6.39D-01
 E= -1694.04887406774     Delta-E=       -0.000000325842 Rises=F Damp=F
 DIIS: error= 5.81D-06 at cycle   5 NSaved=   5.
 NSaved= 5 IEnMin= 5 EnMin= -1694.04887406774     IErMin= 5 ErrMin= 5.81D-06
 ErrMax= 5.81D-06  0.00D+00 EMaxC= 1.00D-01 BMatC= 6.41D-09 BMatP= 3.27D-07
 IDIUse=1 WtCom= 1.00D+00 WtEn= 0.00D+00
 Coeff-Com: -0.235D-02 0.269D+00 0.125D+00 0.226D+00 0.382D+00
 Coeff:     -0.235D-02 0.269D+00 0.125D+00 0.226D+00 0.382D+00
 Gap=     0.055 Goal=   None    Shift=    0.000
 RMSDP=1.04D-07 MaxDP=7.38D-06 DE=-3.26D-07 OVMax= 6.45D-05

 Cycle  13  Pass 1  IDiag  1:
 RMSU=  9.29D-08    CP:  1.00D+00  1.01D+00  3.63D-01  6.60D-01  8.91D-01
 E= -1694.04887407488     Delta-E=       -0.000000007140 Rises=F Damp=F
 DIIS: error= 1.64D-06 at cycle   6 NSaved=   6.
 NSaved= 6 IEnMin= 6 EnMin= -1694.04887407488     IErMin= 6 ErrMin= 1.64D-06
 ErrMax= 1.64D-06  0.00D+00 EMaxC= 1.00D-01 BMatC= 5.59D-10 BMatP= 6.41D-09
 IDIUse=1 WtCom= 1.00D+00 WtEn= 0.00D+00
 Coeff-Com: -0.812D-03 0.900D-01 0.421D-01 0.769D-01 0.237D+00 0.555D+00
 Coeff:     -0.812D-03 0.900D-01 0.421D-01 0.769D-01 0.237D+00 0.555D+00
 Gap=     0.055 Goal=   None    Shift=    0.000
 RMSDP=3.39D-08 MaxDP=2.53D-06 DE=-7.14D-09 OVMax= 2.17D-05

 Cycle  14  Pass 1  IDiag  1:
 RMSU=  2.12D-08    CP:  1.00D+00  1.01D+00  3.63D-01  6.51D-01  9.31D-01
                    CP:  7.96D-01
 E= -1694.04887407551     Delta-E=       -0.000000000631 Rises=F Damp=F
 DIIS: error= 4.94D-07 at cycle   7 NSaved=   7.
 NSaved= 7 IEnMin= 7 EnMin= -1694.04887407551     IErMin= 7 ErrMin= 4.94D-07
 ErrMax= 4.94D-07  0.00D+00 EMaxC= 1.00D-01 BMatC= 6.36D-11 BMatP= 5.59D-10
 IDIUse=1 WtCom= 1.00D+00 WtEn= 0.00D+00
 Coeff-Com: -0.254D-03 0.272D-01 0.124D-01 0.254D-01 0.958D-01 0.324D+00
 Coeff-Com:  0.515D+00
 Coeff:     -0.254D-03 0.272D-01 0.124D-01 0.254D-01 0.958D-01 0.324D+00
 Coeff:      0.515D+00
 Gap=     0.055 Goal=   None    Shift=    0.000
 RMSDP=1.10D-08 MaxDP=4.20D-07 DE=-6.31D-10 OVMax= 3.65D-06

 Cycle  15  Pass 1  IDiag  1:
 RMSU=  8.62D-09    CP:  1.00D+00  1.01D+00  3.63D-01  6.53D-01  9.29D-01
                    CP:  8.33D-01  7.52D-01
 E= -1694.04887407557     Delta-E=       -0.000000000059 Rises=F Damp=F
 DIIS: error= 3.29D-07 at cycle   8 NSaved=   8.
 NSaved= 8 IEnMin= 8 EnMin= -1694.04887407557     IErMin= 8 ErrMin= 3.29D-07
 ErrMax= 3.29D-07  0.00D+00 EMaxC= 1.00D-01 BMatC= 1.36D-11 BMatP= 6.36D-11
 IDIUse=1 WtCom= 1.00D+00 WtEn= 0.00D+00
 Coeff-Com:  0.478D-04-0.586D-02-0.324D-02-0.238D-02-0.287D-02 0.786D-01
 Coeff-Com:  0.335D+00 0.601D+00
 Coeff:      0.478D-04-0.586D-02-0.324D-02-0.238D-02-0.287D-02 0.786D-01
 Coeff:      0.335D+00 0.601D+00
 Gap=     0.055 Goal=   None    Shift=    0.000
 RMSDP=5.56D-09 MaxDP=2.03D-07 DE=-5.91D-11 OVMax= 1.44D-06

 SCF Done:  E(RB3LYP) =  -1694.04887408     A.U. after   15 cycles
            NFock= 15  Conv=0.56D-08     -V/T= 2.0043
 KE= 1.686840589772D+03 PE=-1.352134902592D+04 EE= 5.345147010193D+03
 Leave Link  502 at Wed Sep 27 16:40:00 2023, MaxMem=  3221225472 cpu:            4191.8 elap:             114.6
 (Enter /home/center/opt/aarch64/apps/gaussian16/c01/g16/l601.exe)
 Copying SCF densities to generalized density rwf, IOpCl= 0 IROHF=0.

 **********************************************************************

            Population analysis using the SCF Density.

 **********************************************************************

 Orbital symmetries:
       Occupied  (A') (A") (A') (A") (A") (A') (A') (A") (A') (A')
                 (A') (A") (A") (A') (A") (A') (A") (A') (A') (A")
                 (A") (A') (A") (A') (A") (A') (A') (A") (A') (A")
                 (A") (A') (A") (A') (A') (A") (A') (A") (A') (A')
                 (A") (A') (A") (A') (A') (A") (A') (A') (A") (A')
                 (A") (A") (A') (A') (A") (A') (A') (A') (A") (A")
                 (A') (A") (A") (A") (A') (A') (A') (A') (A") (A")
                 (A') (A") (A") (A") (A') (A') (A") (A') (A') (A')
                 (A') (A") (A") (A') (A") (A") (A') (A") (A') (A')
                 (A") (A') (A") (A") (A') (A') (A") (A') (A") (A')
                 (A") (A') (A') (A') (A') (A") (A") (A") (A') (A')
                 (A') (A') (A") (A") (A") (A") (A") (A') (A') (A")
                 (A') (A') (A") (A') (A") (A') (A') (A") (A') (A")
                 (A") (A") (A') (A") (A') (A') (A") (A') (A') (A")
                 (A') (A") (A") (A") (A') (A')
       Virtual   (A') (A') (A") (A") (A") (A") (A') (A') (A') (A")
                 (A') (A') (A") (A') (A') (A") (A') (A') (A") (A")
                 (A') (A') (A") (A") (A') (A") (A') (A") (A") (A')
                 (A") (A') (A") (A') (A') (A") (A") (A') (A') (A')
                 (A") (A') (A') (A") (A') (A") (A') (A") (A") (A')
                 (A") (A') (A') (A') (A') (A") (A') (A') (A") (A")
                 (A') (A") (A') (A") (A") (A") (A') (A") (A") (A')
                 (A') (A') (A") (A') (A') (A") (A") (A') (A') (A")
                 (A') (A") (A') (A") (A') (A') (A") (A') (A") (A')
                 (A") (A') (A") (A") (A') (A') (A') (A") (A") (A')
                 (A') (A') (A") (A') (A") (A") (A") (A') (A") (A")
                 (A') (A') (A') (A") (A') (A") (A') (A') (A") (A')
                 (A") (A') (A') (A") (A") (A') (A') (A") (A') (A")
                 (A') (A") (A') (A') (A') (A') (A") (A") (A") (A')
                 (A') (A") (A") (A") (A') (A') (A") (A') (A') (A")
                 (A') (A") (A") (A") (A") (A') (A') (A') (A') (A")
                 (A') (A') (A") (A") (A') (A") (A') (A') (A") (A")
                 (A') (A') (A") (A') (A') (A") (A") (A") (A') (A')
                 (A") (A") (A') (A') (A") (A") (A') (A") (A") (A')
                 (A') (A") (A') (A') (A") (A') (A") (A') (A") (A')
                 (A') (A") (A') (A') (A") (A") (A") (A') (A') (A")
                 (A') (A") (A') (A") (A') (A") (A') (A") (A') (A")
                 (A") (A") (A') (A') (A') (A') (A") (A") (A') (A')
                 (A') (A") (A") (A') (A") (A") (A') (A') (A") (A')
                 (A') (A') (A") (A") (A') (A") (A") (A') (A') (A")
                 (A') (A") (A') (A") (A") (A") (A') (A') (A') (A')
                 (A") (A") (A') (A") (A") (A') (A') (A') (A") (A")
                 (A') (A") (A") (A') (A") (A') (A") (A') (A") (A')
                 (A') (A") (A') (A") (A') (A') (A") (A') (A") (A")
                 (A') (A") (A') (A") (A") (A') (A') (A') (A") (A')
                 (A") (A") (A') (A") (A') (A") (A') (A") (A') (A")
                 (A") (A') (A') (A') (A") (A") (A") (A') (A') (A")
                 (A') (A') (A') (A") (A") (A") (A') (A') (A") (A")
                 (A") (A') (A') (A") (A') (A") (A') (A') (A") (A')
                 (A") (A') (A') (A") (A") (A') (A') (A") (A') (A')
                 (A') (A") (A") (A') (A") (A') (A') (A") (A') (A")
                 (A') (A') (A") (A") (A') (A") (A') (A") (A") (A')
                 (A') (A") (A") (A') (A") (A") (A") (A') (A") (A')
                 (A') (A") (A') (A') (A') (A') (A") (A') (A") (A')
                 (A") (A') (A") (A") (A') (A') (A") (A') (A") (A")
                 (A') (A") (A') (A') (A") (A") (A') (A') (A') (A")
                 (A') (A') (A') (A') (A") (A') (A') (A") (A") (A")
                 (A') (A") (A") (A') (A") (A') (A") (A') (A") (A")
                 (A') (A') (A') (A') (A") (A") (A") (A') (A') (A")
                 (A") (A") (A') (A") (A') (A') (A") (A") (A') (A')
                 (A') (A") (A") (A') (A") (A') (A") (A') (A") (A')
                 (A") (A') (A") (A') (A") (A') (A') (A") (A") (A')
                 (A') (A") (A") (A') (A') (A') (A") (A") (A') (A")
                 (A') (A") (A') (A") (A') (A") (A") (A") (A") (A")
                 (A') (A") (A') (A") (A') (A') (A") (A') (A') (A')
                 (A") (A') (A") (A") (A") (A') (A') (A") (A') (A")
                 (A') (A") (A') (A') (A") (A') (A") (A') (A") (A")
                 (A') (A") (A') (A') (A") (A") (A') (A") (A") (A')
                 (A") (A') (A') (A') (A") (A") (A") (A') (A') (A')
                 (A') (A") (A") (A") (A') (A') (A") (A") (A') (A")
                 (A") (A') (A") (A') (A') (A") (A') (A') (A") (A')
                 (A") (A') (A') (A") (A") (A") (A') (A") (A') (A')
                 (A') (A") (A') (A") (A') (A') (A") (A') (A') (A")
                 (A") (A') (A") (A') (A") (A') (A") (A") (A') (A")
                 (A") (A') (A') (A") (A') (A") (A') (A') (A') (A')
                 (A") (A") (A') (A') (A") (A') (A") (A') (A') (A")
                 (A") (A') (A") (A') (A") (A") (A') (A') (A') (A")
                 (A') (A') (A') (A") (A') (A") (A") (A') (A") (A")
                 (A') (A") (A") (A') (A") (A') (A') (A") (A') (A")
                 (A') (A') (A") (A') (A') (A") (A') (A") (A') (A')
                 (A") (A") (A") (A') (A') (A") (A') (A") (A') (A")
                 (A") (A') (A") (A') (A') (A') (A") (A') (A") (A')
                 (A") (A') (A') (A") (A") (A') (A") (A') (A") (A')
                 (A') (A') (A") (A") (A') (A") (A") (A") (A') (A")
                 (A') (A") (A') (A") (A') (A') (A') (A") (A') (A")
                 (A') (A") (A") (A") (A') (A') (A") (A') (A") (A')
                 (A") (A") (A') (A") (A') (A') (A') (A') (A") (A")
                 (A') (A') (A") (A") (A') (A') (A") (A') (A") (A')
                 (A') (A") (A') (A") (A') (A") (A') (A") (A") (A')
                 (A') (A") (A') (A") (A') (A') (A') (A') (A") (A")
                 (A') (A") (A') (A") (A') (A") (A') (A') (A") (A")
                 (A") (A') (A") (A") (A') (A') (A") (A") (A') (A")
                 (A') (A') (A") (A") (A') (A') (A') (A') (A") (A")
                 (A") (A') (A") (A") (A') (A') (A') (A") (A') (A")
                 (A') (A") (A") (A") (A') (A') (A") (A') (A') (A')
                 (A") (A") (A') (A') (A") (A') (A") (A') (A") (A')
                 (A') (A") (A') (A")
 The electronic state is 1-A'.
 Alpha  occ. eigenvalues --  -10.20033 -10.20033 -10.19996 -10.19995 -10.19887
 Alpha  occ. eigenvalues --  -10.19886 -10.19849 -10.19849 -10.19092 -10.19092
 Alpha  occ. eigenvalues --  -10.19011 -10.19011 -10.19011 -10.19010 -10.18783
 Alpha  occ. eigenvalues --  -10.18783 -10.18777 -10.18777 -10.18700 -10.18700
 Alpha  occ. eigenvalues --  -10.18664 -10.18664 -10.17571 -10.17571 -10.17540
 Alpha  occ. eigenvalues --  -10.17540 -10.17442 -10.17442 -10.17344 -10.17344
 Alpha  occ. eigenvalues --  -10.16740 -10.16740 -10.16628 -10.16628 -10.16543
 Alpha  occ. eigenvalues --  -10.16542 -10.16530 -10.16468 -10.16468 -10.16379
 Alpha  occ. eigenvalues --  -10.16324 -10.16324 -10.16200 -10.16200  -0.90619
 Alpha  occ. eigenvalues --   -0.89079  -0.87967  -0.86729  -0.86522  -0.84225
 Alpha  occ. eigenvalues --   -0.83568  -0.81103  -0.80902  -0.79650  -0.79342
 Alpha  occ. eigenvalues --   -0.78448  -0.77216  -0.76999  -0.76967  -0.75361
 Alpha  occ. eigenvalues --   -0.74659  -0.73902  -0.72943  -0.71577  -0.70219
 Alpha  occ. eigenvalues --   -0.68469  -0.67838  -0.66027  -0.63737  -0.63390
 Alpha  occ. eigenvalues --   -0.62170  -0.61406  -0.61093  -0.60968  -0.60278
 Alpha  occ. eigenvalues --   -0.59810  -0.58674  -0.58655  -0.58027  -0.56396
 Alpha  occ. eigenvalues --   -0.53748  -0.53606  -0.53239  -0.51456  -0.51293
 Alpha  occ. eigenvalues --   -0.51011  -0.50639  -0.49520  -0.48377  -0.48063
 Alpha  occ. eigenvalues --   -0.47274  -0.47050  -0.46504  -0.46468  -0.46233
 Alpha  occ. eigenvalues --   -0.45982  -0.45237  -0.44911  -0.44170  -0.44106
 Alpha  occ. eigenvalues --   -0.43476  -0.42771  -0.42678  -0.42526  -0.42461
 Alpha  occ. eigenvalues --   -0.41763  -0.41610  -0.41365  -0.41138  -0.40604
 Alpha  occ. eigenvalues --   -0.40315  -0.40105  -0.40003  -0.39339  -0.39132
 Alpha  occ. eigenvalues --   -0.38962  -0.38326  -0.37509  -0.37261  -0.37182
 Alpha  occ. eigenvalues --   -0.36474  -0.35498  -0.35108  -0.35090  -0.34722
 Alpha  occ. eigenvalues --   -0.34025  -0.33493  -0.33161  -0.32967  -0.32759
 Alpha  occ. eigenvalues --   -0.31925  -0.31709  -0.31138  -0.30965  -0.30097
 Alpha  occ. eigenvalues --   -0.29303  -0.28171  -0.27901  -0.27190  -0.25731
 Alpha  occ. eigenvalues --   -0.25144  -0.23847  -0.23115  -0.21109  -0.19152
 Alpha  occ. eigenvalues --   -0.16366
 Alpha virt. eigenvalues --   -0.10828  -0.08420  -0.05580  -0.03974  -0.03165
 Alpha virt. eigenvalues --   -0.01438  -0.01297   0.00938   0.01134   0.01174
 Alpha virt. eigenvalues --    0.01903   0.03371   0.03545   0.03761   0.03922
 Alpha virt. eigenvalues --    0.03938   0.04965   0.05759   0.05828   0.06151
 Alpha virt. eigenvalues --    0.06159   0.07170   0.07207   0.07269   0.07738
 Alpha virt. eigenvalues --    0.08672   0.08685   0.09454   0.09724   0.10308
 Alpha virt. eigenvalues --    0.10443   0.11046   0.11996   0.12354   0.13047
 Alpha virt. eigenvalues --    0.13292   0.13637   0.13893   0.14398   0.15389
 Alpha virt. eigenvalues --    0.15437   0.16659   0.16815   0.17011   0.17672
 Alpha virt. eigenvalues --    0.18018   0.18125   0.18367   0.19210   0.20359
 Alpha virt. eigenvalues --    0.20418   0.21104   0.21792   0.21977   0.23449
 Alpha virt. eigenvalues --    0.24072   0.24313   0.24656   0.24733   0.25354
 Alpha virt. eigenvalues --    0.25379   0.26420   0.26422   0.26569   0.26685
 Alpha virt. eigenvalues --    0.26829   0.27297   0.28261   0.28564   0.28595
 Alpha virt. eigenvalues --    0.28998   0.29227   0.29605   0.30006   0.30121
 Alpha virt. eigenvalues --    0.30233   0.30795   0.31074   0.32019   0.32118
 Alpha virt. eigenvalues --    0.33478   0.33547   0.33558   0.33739   0.34065
 Alpha virt. eigenvalues --    0.34301   0.34699   0.35244   0.35536   0.35829
 Alpha virt. eigenvalues --    0.35889   0.36115   0.36797   0.37356   0.37576
 Alpha virt. eigenvalues --    0.37862   0.38300   0.38920   0.39104   0.39214
 Alpha virt. eigenvalues --    0.39234   0.39428   0.39915   0.40061   0.40207
 Alpha virt. eigenvalues --    0.40315   0.40500   0.40802   0.40887   0.40991
 Alpha virt. eigenvalues --    0.41373   0.42135   0.42489   0.42515   0.42558
 Alpha virt. eigenvalues --    0.42655   0.43411   0.43455   0.43722   0.44463
 Alpha virt. eigenvalues --    0.44519   0.44886   0.44962   0.44975   0.45000
 Alpha virt. eigenvalues --    0.45368   0.45448   0.45515   0.45768   0.45830
 Alpha virt. eigenvalues --    0.46093   0.46234   0.46495   0.46576   0.46634
 Alpha virt. eigenvalues --    0.47240   0.47568   0.47612   0.47879   0.48970
 Alpha virt. eigenvalues --    0.49030   0.50155   0.50270   0.50661   0.50712
 Alpha virt. eigenvalues --    0.50831   0.50831   0.51293   0.51468   0.51646
 Alpha virt. eigenvalues --    0.52752   0.52786   0.53154   0.53463   0.54032
 Alpha virt. eigenvalues --    0.54143   0.54833   0.55105   0.55870   0.56591
 Alpha virt. eigenvalues --    0.56946   0.56953   0.57134   0.57626   0.58092
 Alpha virt. eigenvalues --    0.58346   0.58355   0.58444   0.59539   0.59684
 Alpha virt. eigenvalues --    0.59965   0.60310   0.60535   0.60559   0.61271
 Alpha virt. eigenvalues --    0.61283   0.61819   0.62187   0.62665   0.62839
 Alpha virt. eigenvalues --    0.62951   0.63695   0.63736   0.63981   0.64080
 Alpha virt. eigenvalues --    0.64150   0.64182   0.64622   0.65023   0.65142
 Alpha virt. eigenvalues --    0.65274   0.65454   0.66167   0.66713   0.67228
 Alpha virt. eigenvalues --    0.67931   0.68576   0.68862   0.69336   0.69945
 Alpha virt. eigenvalues --    0.70392   0.70410   0.71257   0.71414   0.71417
 Alpha virt. eigenvalues --    0.72363   0.72820   0.72895   0.73155   0.74113
 Alpha virt. eigenvalues --    0.74250   0.74708   0.74971   0.75247   0.75309
 Alpha virt. eigenvalues --    0.76386   0.76890   0.77144   0.77851   0.78251
 Alpha virt. eigenvalues --    0.78867   0.78990   0.79087   0.79275   0.79493
 Alpha virt. eigenvalues --    0.80119   0.80155   0.80217   0.80823   0.81219
 Alpha virt. eigenvalues --    0.81780   0.82479   0.82672   0.82908   0.83369
 Alpha virt. eigenvalues --    0.83625   0.83976   0.84069   0.84540   0.84625
 Alpha virt. eigenvalues --    0.84827   0.85100   0.85160   0.85876   0.86133
 Alpha virt. eigenvalues --    0.86621   0.87394   0.87934   0.88259   0.89335
 Alpha virt. eigenvalues --    0.89541   0.90559   0.90706   0.91925   0.91988
 Alpha virt. eigenvalues --    0.93481   0.93490   0.93600   0.94644   0.95693
 Alpha virt. eigenvalues --    0.96004   0.96177   0.96493   0.96619   0.97316
 Alpha virt. eigenvalues --    0.98611   0.98720   0.98956   0.99139   0.99691
 Alpha virt. eigenvalues --    0.99847   1.00202   1.00261   1.01490   1.02712
 Alpha virt. eigenvalues --    1.02833   1.03162   1.03536   1.03929   1.04307
 Alpha virt. eigenvalues --    1.04317   1.04621   1.05042   1.05154   1.05351
 Alpha virt. eigenvalues --    1.06384   1.06416   1.06683   1.06892   1.06909
 Alpha virt. eigenvalues --    1.07539   1.08546   1.08731   1.09622   1.09712
 Alpha virt. eigenvalues --    1.09797   1.09936   1.10659   1.10789   1.11150
 Alpha virt. eigenvalues --    1.11298   1.11924   1.12098   1.12409   1.12430
 Alpha virt. eigenvalues --    1.12985   1.13088   1.13497   1.14521   1.15412
 Alpha virt. eigenvalues --    1.15715   1.15792   1.16063   1.16387   1.17144
 Alpha virt. eigenvalues --    1.17270   1.18114   1.18204   1.18892   1.19580
 Alpha virt. eigenvalues --    1.20084   1.20188   1.21645   1.22867   1.25421
 Alpha virt. eigenvalues --    1.25634   1.26452   1.26954   1.27053   1.27134
 Alpha virt. eigenvalues --    1.28876   1.29487   1.29613   1.30041   1.30896
 Alpha virt. eigenvalues --    1.31180   1.31693   1.32693   1.34590   1.35650
 Alpha virt. eigenvalues --    1.36698   1.36918   1.37501   1.38203   1.38945
 Alpha virt. eigenvalues --    1.39410   1.40375   1.40394   1.40761   1.41062
 Alpha virt. eigenvalues --    1.41903   1.42594   1.43523   1.44080   1.44343
 Alpha virt. eigenvalues --    1.44773   1.45202   1.45651   1.46801   1.47072
 Alpha virt. eigenvalues --    1.47824   1.48222   1.48229   1.48322   1.48884
 Alpha virt. eigenvalues --    1.49050   1.49386   1.49436   1.49436   1.50030
 Alpha virt. eigenvalues --    1.50415   1.50788   1.50887   1.51365   1.51378
 Alpha virt. eigenvalues --    1.51626   1.52560   1.52788   1.52898   1.52988
 Alpha virt. eigenvalues --    1.53372   1.53500   1.54688   1.54938   1.55799
 Alpha virt. eigenvalues --    1.55924   1.56349   1.56710   1.56979   1.57471
 Alpha virt. eigenvalues --    1.58142   1.58707   1.59778   1.60217   1.60445
 Alpha virt. eigenvalues --    1.60880   1.60915   1.60955   1.62602   1.62628
 Alpha virt. eigenvalues --    1.62898   1.63665   1.63798   1.63819   1.66065
 Alpha virt. eigenvalues --    1.66164   1.66804   1.67557   1.68320   1.68551
 Alpha virt. eigenvalues --    1.69135   1.69596   1.70528   1.71268   1.71792
 Alpha virt. eigenvalues --    1.72417   1.72460   1.72549   1.73200   1.73858
 Alpha virt. eigenvalues --    1.73875   1.73883   1.74239   1.74250   1.75063
 Alpha virt. eigenvalues --    1.75066   1.75284   1.75382   1.76415   1.78345
 Alpha virt. eigenvalues --    1.78583   1.78778   1.78814   1.79718   1.80009
 Alpha virt. eigenvalues --    1.80694   1.81569   1.81855   1.82003   1.82222
 Alpha virt. eigenvalues --    1.82659   1.82922   1.83019   1.83884   1.84218
 Alpha virt. eigenvalues --    1.84844   1.84910   1.85038   1.85255   1.86670
 Alpha virt. eigenvalues --    1.86690   1.86753   1.87240   1.87879   1.88162
 Alpha virt. eigenvalues --    1.88743   1.89093   1.89281   1.89518   1.89687
 Alpha virt. eigenvalues --    1.90181   1.90512   1.90831   1.91547   1.91904
 Alpha virt. eigenvalues --    1.92050   1.92184   1.92929   1.93109   1.93309
 Alpha virt. eigenvalues --    1.94015   1.94043   1.94202   1.94770   1.95226
 Alpha virt. eigenvalues --    1.95906   1.96188   1.96337   1.96606   1.97103
 Alpha virt. eigenvalues --    1.97586   1.98142   1.98463   1.98785   1.98804
 Alpha virt. eigenvalues --    1.99149   2.00405   2.01568   2.02844   2.03374
 Alpha virt. eigenvalues --    2.03451   2.03924   2.04120   2.05627   2.07331
 Alpha virt. eigenvalues --    2.07649   2.07738   2.09484   2.09524   2.11433
 Alpha virt. eigenvalues --    2.12191   2.12264   2.12288   2.12580   2.13205
 Alpha virt. eigenvalues --    2.14096   2.14430   2.14618   2.15315   2.16131
 Alpha virt. eigenvalues --    2.16831   2.17720   2.18215   2.19021   2.19930
 Alpha virt. eigenvalues --    2.20135   2.20140   2.20339   2.22779   2.22845
 Alpha virt. eigenvalues --    2.23073   2.23784   2.23810   2.23960   2.24300
 Alpha virt. eigenvalues --    2.26271   2.26607   2.26784   2.27133   2.27505
 Alpha virt. eigenvalues --    2.27563   2.28227   2.28582   2.29116   2.29684
 Alpha virt. eigenvalues --    2.29730   2.30867   2.32623   2.33269   2.34857
 Alpha virt. eigenvalues --    2.34992   2.36452   2.38372   2.38401   2.38448
 Alpha virt. eigenvalues --    2.38805   2.40153   2.41090   2.41137   2.41908
 Alpha virt. eigenvalues --    2.43701   2.43860   2.44724   2.44977   2.45296
 Alpha virt. eigenvalues --    2.45596   2.46822   2.48182   2.48194   2.50357
 Alpha virt. eigenvalues --    2.52492   2.52902   2.53900   2.54248   2.54683
 Alpha virt. eigenvalues --    2.55317   2.56202   2.57021   2.57495   2.58668
 Alpha virt. eigenvalues --    2.58858   2.59007   2.59251   2.59967   2.60801
 Alpha virt. eigenvalues --    2.60997   2.61006   2.61808   2.61849   2.61873
 Alpha virt. eigenvalues --    2.61881   2.63727   2.63810   2.64059   2.64234
 Alpha virt. eigenvalues --    2.64425   2.64882   2.65437   2.65454   2.66546
 Alpha virt. eigenvalues --    2.66662   2.66715   2.67075   2.67713   2.68089
 Alpha virt. eigenvalues --    2.68250   2.68394   2.68524   2.68961   2.69191
 Alpha virt. eigenvalues --    2.69307   2.69921   2.70350   2.70768   2.71116
 Alpha virt. eigenvalues --    2.71461   2.71662   2.72062   2.72605   2.73356
 Alpha virt. eigenvalues --    2.73903   2.73925   2.74197   2.75034   2.75316
 Alpha virt. eigenvalues --    2.75540   2.75609   2.75955   2.76424   2.76466
 Alpha virt. eigenvalues --    2.76483   2.77370   2.77587   2.77611   2.77848
 Alpha virt. eigenvalues --    2.77913   2.79288   2.79431   2.80298   2.80630
 Alpha virt. eigenvalues --    2.81599   2.81955   2.82581   2.84182   2.84234
 Alpha virt. eigenvalues --    2.84550   2.85025   2.85607   2.85809   2.86632
 Alpha virt. eigenvalues --    2.87395   2.88879   2.89539   2.89962   2.90095
 Alpha virt. eigenvalues --    2.90318   2.90404   2.91647   2.92718   2.93297
 Alpha virt. eigenvalues --    2.93907   2.95075   2.95705   2.95929   2.96050
 Alpha virt. eigenvalues --    2.96913   2.97428   2.98331   2.98866   3.01898
 Alpha virt. eigenvalues --    3.01996   3.02051   3.03708   3.03762   3.04379
 Alpha virt. eigenvalues --    3.05405   3.06475   3.06784   3.08187   3.10158
 Alpha virt. eigenvalues --    3.11525   3.11636   3.16983   3.17204   3.18247
 Alpha virt. eigenvalues --    3.18784   3.19021   3.19240   3.20233   3.21599
 Alpha virt. eigenvalues --    3.22090   3.23521   3.25073   3.26779   3.31156
 Alpha virt. eigenvalues --    3.31238   3.32370   3.33072   3.33286   3.34678
 Alpha virt. eigenvalues --    3.35843   3.37103   3.37237   3.37838   3.38302
 Alpha virt. eigenvalues --    3.39138   3.39198   3.40085   3.40800   3.40942
 Alpha virt. eigenvalues --    3.42522   3.43356   3.44058   3.44769   3.45518
 Alpha virt. eigenvalues --    3.46044   3.47642   3.47648   3.50126   3.50153
 Alpha virt. eigenvalues --    3.52075   3.52178   3.53061   3.54283   3.54667
 Alpha virt. eigenvalues --    3.56723   3.57132   3.59515   3.59560   3.61169
 Alpha virt. eigenvalues --    3.63089   3.64203   3.64480   3.65306   3.65824
 Alpha virt. eigenvalues --    3.66575   3.66948   3.68400   3.68661   3.68672
 Alpha virt. eigenvalues --    3.71118   3.75158   3.77833   3.79808   4.00576
 Alpha virt. eigenvalues --    4.00641   4.01060   4.01411   4.02875   4.03026
 Alpha virt. eigenvalues --    4.03564   4.03858   4.15491   4.15962   4.17848
 Alpha virt. eigenvalues --    4.20536   4.20826   4.21162   4.21201   4.21660
 Alpha virt. eigenvalues --    4.21676   4.24375   4.24686   4.27073   4.27902
 Alpha virt. eigenvalues --    4.30750   4.38973   4.42449   4.63341   4.66139
 Alpha virt. eigenvalues --    4.78130   4.78861   4.79585   4.81778   4.81805
 Alpha virt. eigenvalues --    4.82097   4.82284   4.84194   4.86525   4.86564
 Alpha virt. eigenvalues --   23.42983  23.49003  23.57135  23.65743  23.71073
 Alpha virt. eigenvalues --   23.77805  23.78773  23.81531  23.81553  23.82061
 Alpha virt. eigenvalues --   23.84295  23.85772  23.88470  23.88879  23.89372
 Alpha virt. eigenvalues --   23.90744  23.91342  23.93160  23.93694  23.96491
 Alpha virt. eigenvalues --   23.98391  23.99130  23.99622  24.02673  24.09154
 Alpha virt. eigenvalues --   24.09751  24.10510  24.11244  24.11274  24.11631
 Alpha virt. eigenvalues --   24.12240  24.12788  24.13355  24.15190  24.15307
 Alpha virt. eigenvalues --   24.15331  24.15797  24.16314  24.17222  24.17251
 Alpha virt. eigenvalues --   24.19581  24.19625  24.22157  24.22211
          Condensed to atoms (all electrons):
 Mulliken charges:
               1
     1  C   -0.082383
     2  C   -0.082383
     3  C   -0.050379
     4  C   -0.050379
     5  C   -0.096108
     6  C   -0.096108
     7  C   -0.000173
     8  C   -0.078103
     9  C   -0.000172
    10  C   -0.078103
    11  H    0.085694
    12  H    0.077859
    13  H    0.077859
    14  H    0.085694
    15  H    0.098823
    16  H    0.098823
    17  C   -0.004368
    18  C   -0.078103
    19  C   -0.004368
    20  C   -0.078103
    21  H    0.076626
    22  H    0.076626
    23  C   -0.000173
    24  C   -0.082383
    25  C   -0.000172
    26  C   -0.082383
    27  H    0.077859
    28  H    0.077859
    29  C   -0.050379
    30  C   -0.096108
    31  C   -0.050379
    32  C   -0.096108
    33  H    0.085694
    34  H    0.098823
    35  H    0.098823
    36  H    0.085694
    37  C   -0.001949
    38  C   -0.155552
    39  C   -0.066531
    40  C    0.004364
    41  C   -0.084540
    42  C   -0.138991
    43  C   -0.035740
    44  C    0.010351
    45  C    0.043016
    46  C   -0.164875
    47  H    0.076579
    48  H    0.067829
    49  H    0.101364
    50  H    0.111745
    51  H    0.078877
    52  H    0.088686
    53  C   -0.039701
    54  C    0.010351
    55  C    0.039536
    56  C   -0.164875
    57  H    0.066440
    58  H    0.099020
    59  C   -0.035740
    60  C   -0.001949
    61  C    0.043016
    62  C   -0.155552
    63  H    0.067829
    64  H    0.101364
    65  C   -0.066531
    66  C   -0.084540
    67  C    0.004364
    68  C   -0.138991
    69  H    0.076579
    70  H    0.088686
    71  H    0.078877
    72  H    0.111745
 Sum of Mulliken charges =   0.00000
 Mulliken charges with hydrogens summed into heavy atoms:
               1
     1  C   -0.082383
     2  C   -0.082383
     3  C    0.035315
     4  C    0.035315
     5  C    0.002715
     6  C    0.002715
     7  C    0.077687
     8  C   -0.078103
     9  C    0.077687
    10  C   -0.078103
    17  C    0.072258
    18  C   -0.078103
    19  C    0.072259
    20  C   -0.078103
    23  C    0.077687
    24  C   -0.082383
    25  C    0.077687
    26  C   -0.082383
    29  C    0.035315
    30  C    0.002715
    31  C    0.035315
    32  C    0.002715
    37  C   -0.001949
    38  C   -0.155552
    39  C    0.010048
    40  C    0.116109
    41  C    0.004146
    42  C   -0.060114
    43  C    0.032089
    44  C    0.010351
    45  C    0.144379
    46  C   -0.164875
    53  C    0.026739
    54  C    0.010351
    55  C    0.138555
    56  C   -0.164875
    59  C    0.032089
    60  C   -0.001949
    61  C    0.144379
    62  C   -0.155552
    65  C    0.010048
    66  C    0.004146
    67  C    0.116109
    68  C   -0.060114
         Mulliken charges condensed to fragments:
      1     -0.034561
      2      0.034561
 Electronic spatial extent (au):  <R**2>=          24106.9588
 Charge=              0.0000 electrons
 Dipole moment (field-independent basis, Debye):
    X=              0.0000    Y=             -2.3832    Z=              0.0000  Tot=              2.3832
 Quadrupole moment (field-independent basis, Debye-Ang):
   XX=           -244.6259   YY=           -251.2445   ZZ=           -221.2211
   XY=              0.0000   XZ=              0.0000   YZ=              0.0000
 Traceless Quadrupole moment (field-independent basis, Debye-Ang):
   XX=             -5.5954   YY=            -12.2139   ZZ=             17.8094
   XY=              0.0000   XZ=              0.0000   YZ=              0.0000
 Octapole moment (field-independent basis, Debye-Ang**2):
  XXX=              0.0000  YYY=            145.1359  ZZZ=              0.0000  XYY=              0.0000
  XXY=            -66.1501  XXZ=              0.0000  XZZ=              0.0000  YZZ=            -49.9165
  YYZ=              0.0000  XYZ=              0.0000
 Hexadecapole moment (field-independent basis, Debye-Ang**3):
 XXXX=          -1249.6117 YYYY=          -9195.9306 ZZZZ=         -21134.7129 XXXY=              0.0000
 XXXZ=              0.0000 YYYX=              0.0000 YYYZ=              0.0000 ZZZX=              0.0000
 ZZZY=              0.0000 XXYY=          -1808.5135 XXZZ=          -4144.8317 YYZZ=          -5397.2618
 XXYZ=              0.0000 YYXZ=              0.0000 ZZXY=              0.0000
 N-N= 4.795312551876D+03 E-N=-1.352134905471D+04  KE= 1.686840589772D+03
 Symmetry A'   KE= 9.135247196418D+02
 Symmetry A"   KE= 7.733158701300D+02
 No NMR shielding tensors so no spin-rotation constants.
 Leave Link  601 at Wed Sep 27 16:40:03 2023, MaxMem=  3221225472 cpu:              52.0 elap:               1.4
 (Enter /home/center/opt/aarch64/apps/gaussian16/c01/g16/l122.exe)
 CPIOFr:  IOpCl= 0 IRwI=-1 IRwCP=  731 ICalc= -1 LCPTot=     1419224 Len1MO=     3708034 IndFrg=     1419224
 CPIOFr:  IOpCl= 0 IRwI=-1 IRwCP=  731 ICalc=  0 LCPTot=     1419224 Len1MO=     3708034 IndFrg=     5127258
 Counterpoise: doing calculation for fragment   1 using the basis set of the full-system, NewBq=T
 Leave Link  122 at Wed Sep 27 16:40:06 2023, MaxMem=  3221225472 cpu:               8.3 elap:               0.4
 (Enter /home/center/opt/aarch64/apps/gaussian16/c01/g16/l301.exe)
 Basis read from rwf:  (5D, 7F)
 No pseudopotential information found on rwf file.
 There are   528 symmetry adapted cartesian basis functions of A'  symmetry.
 There are   476 symmetry adapted cartesian basis functions of A"  symmetry.
 There are   504 symmetry adapted basis functions of A'  symmetry.
 There are   456 symmetry adapted basis functions of A"  symmetry.
   960 basis functions,  1632 primitive gaussians,  1004 cartesian basis functions
    73 alpha electrons       73 beta electrons
       nuclear repulsion energy      1494.3575060154 Hartrees.
 IExCor=  402 DFT=T Ex+Corr=B3LYP ExCW=0 ScaHFX=  0.200000
 ScaDFX=  0.800000  0.720000  1.000000  0.810000 ScalE2=  1.000000  1.000000
 IRadAn=      5 IRanWt=     -1 IRanGd=            0 ICorTp=0 IEmpDi=131
 NAtoms=   72 NActive=   72 NUniq=   40 SFac= 3.24D+00 NAtFMM=   60 NAOKFM=T Big=F
 Integral buffers will be    131072 words long.
 Raffenetti 2 integral format.
 Two-electron integral symmetry is turned on.
 R6Disp:  Grimme-D3 Dispersion energy=       -0.0303938888 Hartrees.
 Nuclear repulsion after empirical dispersion term =     1494.3271121266 Hartrees.
 No density basis found on file    718.
 Leave Link  301 at Wed Sep 27 16:40:08 2023, MaxMem=  3221225472 cpu:               2.4 elap:               0.1
 (Enter /home/center/opt/aarch64/apps/gaussian16/c01/g16/l302.exe)
 NPDir=0 NMtPBC=     1 NCelOv=     1 NCel=       1 NClECP=     1 NCelD=      1
         NCelK=      1 NCelE2=     1 NClLst=     1 CellRange=     0.0.
 One-electron integrals computed using PRISM.
 One-electron integral symmetry used in STVInt
 NBasis=   960 RedAO= T EigKep=  3.69D-05  NBF=   504   456
 NBsUse=   960 1.00D-06 EigRej= -1.00D+00 NBFU=   504   456
 Precomputing XC quadrature grid using
 IXCGrd= 4 IRadAn=           5 IRanWt=          -1 IRanGd=           0 AccXCQ= 0.00D+00.
 Generated NRdTot=       0 NPtTot=           0 NUsed=           0 NTot=          32
 NSgBfM=   991   991   991   991   991 MxSgAt=    72 MxSgA2=    72.
 Leave Link  302 at Wed Sep 27 16:40:12 2023, MaxMem=  3221225472 cpu:              60.9 elap:               1.7
 (Enter /home/center/opt/aarch64/apps/gaussian16/c01/g16/l303.exe)
 DipDrv:  MaxL=1.
 Leave Link  303 at Wed Sep 27 16:40:15 2023, MaxMem=  3221225472 cpu:              13.1 elap:               0.4
 (Enter /home/center/opt/aarch64/apps/gaussian16/c01/g16/l401.exe)
 ExpMin= 1.03D-01 ExpMax= 4.56D+03 ExpMxC= 6.82D+02 IAcc=3 IRadAn=         5 AccDes= 0.00D+00
 Harris functional with IExCor=  402 and IRadAn=       5 diagonalized for initial guess.
 HarFok:  IExCor=  402 AccDes= 0.00D+00 IRadAn=         5 IDoV= 1 UseB2=F ITyADJ=14
 ICtDFT=  3500011 ScaDFX=  1.000000  1.000000  1.000000  1.000000
 FoFCou: FMM=F IPFlag=           0 FMFlag=      100000 FMFlg1=        2000
         NFxFlg=           0 DoJE=T BraDBF=F KetDBF=T FulRan=T
         wScrn=  0.000000 ICntrl=       500 IOpCl=  0 I1Cent=   200000004 NGrid=           0
         NMat0=    1 NMatS0=      1 NMatT0=    0 NMatD0=    1 NMtDS0=    0 NMtDT0=    0
 Petite list used in FoFCou.
 Harris En= -847.068371532707    
 JPrj=0 DoOrth=F DoCkMO=F.
 Initial guess orbital symmetries:
       Occupied  (A") (A') (A') (A") (A") (A') (A") (A') (A") (A')
                 (A") (A') (A') (A') (A") (A') (A") (A') (A") (A')
                 (A') (A") (A') (A") (A') (A") (A') (A') (A") (A')
                 (A") (A") (A') (A') (A") (A") (A') (A") (A') (A')
                 (A') (A") (A") (A") (A') (A') (A") (A') (A') (A")
                 (A') (A") (A") (A') (A') (A") (A') (A") (A') (A")
                 (A") (A') (A') (A") (A') (A") (A') (A") (A') (A')
                 (A") (A") (A')
       Virtual   (A') (A") (A") (A') (A') (A") (A') (A") (A') (A")
                 (A') (A') (A") (A') (A") (A') (A') (A") (A") (A')
                 (A") (A") (A') (A') (A') (A") (A') (A") (A') (A')
                 (A') (A") (A") (A') (A') (A") (A') (A") (A') (A")
                 (A') (A") (A") (A') (A") (A") (A') (A') (A") (A')
                 (A') (A') (A") (A') (A") (A") (A') (A") (A') (A')
                 (A') (A") (A') (A') (A") (A") (A") (A') (A") (A')
                 (A") (A') (A') (A") (A') (A") (A') (A') (A") (A')
                 (A') (A") (A") (A") (A') (A") (A") (A') (A') (A")
                 (A') (A") (A") (A') (A') (A') (A') (A') (A') (A")
                 (A') (A") (A') (A") (A") (A') (A") (A") (A") (A')
                 (A') (A') (A") (A') (A") (A") (A') (A") (A') (A")
                 (A') (A') (A") (A") (A') (A') (A') (A") (A") (A')
                 (A') (A') (A") (A") (A') (A") (A') (A') (A') (A")
                 (A") (A') (A") (A') (A") (A") (A') (A') (A") (A")
                 (A') (A") (A') (A') (A") (A') (A") (A') (A") (A')
                 (A') (A') (A") (A') (A") (A") (A') (A") (A') (A")
                 (A') (A") (A') (A") (A") (A') (A') (A') (A") (A")
                 (A') (A") (A') (A") (A') (A") (A') (A') (A") (A')
                 (A") (A') (A') (A") (A') (A') (A") (A") (A') (A")
                 (A') (A") (A") (A") (A') (A') (A") (A") (A') (A')
                 (A") (A") (A') (A') (A') (A") (A") (A') (A') (A")
                 (A') (A") (A') (A") (A') (A') (A") (A") (A') (A")
                 (A") (A') (A') (A") (A') (A') (A") (A") (A') (A')
                 (A') (A") (A') (A") (A") (A') (A") (A") (A') (A")
                 (A') (A') (A') (A") (A') (A") (A") (A') (A") (A")
                 (A') (A') (A') (A") (A') (A") (A') (A") (A") (A')
                 (A') (A") (A') (A') (A") (A") (A") (A') (A') (A')
                 (A") (A') (A") (A") (A') (A") (A") (A') (A') (A')
                 (A') (A") (A') (A") (A") (A') (A') (A") (A') (A")
                 (A') (A") (A') (A") (A") (A') (A") (A') (A") (A')
                 (A') (A") (A") (A') (A') (A") (A') (A') (A") (A")
                 (A") (A') (A') (A") (A') (A') (A") (A') (A') (A")
                 (A') (A') (A") (A') (A') (A") (A") (A") (A") (A')
                 (A') (A") (A") (A') (A") (A") (A') (A') (A') (A")
                 (A') (A") (A') (A') (A') (A') (A') (A") (A") (A')
                 (A") (A') (A") (A') (A") (A') (A') (A") (A") (A")
                 (A') (A') (A") (A") (A") (A') (A') (A") (A") (A')
                 (A") (A") (A') (A') (A') (A") (A') (A') (A") (A")
                 (A') (A') (A") (A") (A') (A") (A") (A') (A') (A")
                 (A') (A') (A') (A") (A") (A") (A') (A") (A') (A')
                 (A") (A') (A") (A") (A') (A') (A") (A") (A') (A')
                 (A") (A") (A') (A') (A") (A") (A") (A") (A') (A')
                 (A") (A') (A') (A') (A') (A") (A") (A') (A') (A")
                 (A') (A') (A') (A") (A') (A") (A") (A") (A') (A")
                 (A") (A') (A") (A") (A") (A') (A') (A') (A") (A")
                 (A') (A') (A') (A") (A") (A') (A') (A') (A") (A")
                 (A') (A") (A') (A") (A") (A') (A") (A') (A") (A")
                 (A') (A') (A") (A') (A') (A") (A") (A') (A') (A")
                 (A") (A') (A') (A') (A") (A') (A") (A") (A') (A")
                 (A") (A') (A') (A") (A") (A') (A') (A") (A') (A')
                 (A") (A") (A') (A") (A') (A") (A") (A') (A') (A")
                 (A') (A") (A') (A") (A') (A') (A") (A') (A") (A')
                 (A') (A") (A") (A') (A") (A') (A") (A') (A') (A')
                 (A") (A") (A') (A') (A') (A") (A') (A") (A") (A')
                 (A') (A") (A") (A') (A") (A") (A") (A') (A') (A")
                 (A') (A") (A') (A') (A") (A') (A') (A") (A') (A')
                 (A') (A") (A") (A") (A") (A') (A') (A') (A') (A")
                 (A") (A') (A") (A") (A') (A") (A") (A') (A') (A")
                 (A') (A') (A') (A") (A') (A") (A') (A") (A") (A')
                 (A") (A') (A") (A") (A') (A') (A") (A') (A") (A")
                 (A') (A') (A') (A") (A') (A") (A') (A") (A') (A')
                 (A") (A") (A') (A') (A") (A") (A') (A") (A") (A')
                 (A") (A") (A') (A') (A") (A') (A') (A") (A') (A")
                 (A") (A") (A') (A') (A') (A') (A") (A") (A") (A')
                 (A") (A") (A') (A') (A') (A") (A') (A") (A') (A")
                 (A") (A") (A') (A") (A') (A') (A") (A") (A') (A')
                 (A") (A') (A') (A") (A") (A') (A") (A') (A') (A')
                 (A") (A') (A") (A') (A') (A') (A") (A') (A") (A')
                 (A") (A") (A') (A") (A') (A") (A') (A') (A") (A')
                 (A") (A") (A') (A") (A') (A") (A') (A') (A") (A')
[...]
                 (A') (A") (A') (A') (A') (A") (A") (A") (A") (A')
                 (A') (A') (A") (A") (A') (A") (A') (A") (A') (A')
                 (A") (A") (A')
       Virtual   (A') (A") (A") (A') (A') (A") (A') (A') (A') (A")
                 (A") (A') (A") (A') (A") (A') (A") (A") (A') (A")
                 (A') (A') (A") (A') (A") (A') (A') (A') (A') (A")
                 (A") (A") (A") (A') (A') (A") (A') (A") (A') (A")
                 (A') (A') (A') (A") (A') (A") (A") (A') (A') (A")
                 (A") (A') (A') (A") (A') (A") (A") (A") (A') (A")
                 (A') (A') (A') (A') (A') (A") (A') (A') (A") (A")
                 (A") (A') (A') (A') (A") (A') (A") (A") (A") (A')
                 (A') (A") (A') (A") (A") (A') (A") (A') (A') (A')
                 (A') (A') (A") (A") (A") (A") (A') (A") (A') (A")
                 (A') (A') (A') (A") (A") (A') (A') (A") (A') (A")
                 (A') (A") (A") (A") (A') (A') (A") (A') (A') (A")
                 (A') (A") (A") (A') (A') (A") (A') (A") (A') (A")
                 (A") (A') (A') (A') (A') (A") (A") (A") (A') (A")
                 (A') (A") (A') (A") (A') (A') (A") (A") (A') (A")
                 (A') (A") (A') (A") (A') (A') (A") (A') (A") (A")
                 (A') (A") (A') (A') (A") (A") (A') (A") (A') (A")
                 (A') (A') (A") (A') (A') (A") (A") (A') (A') (A')
                 (A") (A') (A") (A") (A") (A") (A') (A") (A') (A')
                 (A") (A') (A") (A') (A') (A') (A") (A') (A") (A')
                 (A") (A") (A') (A') (A") (A") (A') (A') (A") (A')
                 (A') (A') (A') (A") (A") (A") (A") (A') (A') (A")
                 (A') (A") (A") (A') (A") (A') (A") (A') (A") (A')
                 (A") (A') (A') (A") (A') (A") (A") (A') (A') (A")
                 (A") (A') (A') (A") (A") (A') (A") (A") (A") (A')
                 (A') (A") (A') (A') (A") (A') (A') (A") (A') (A")
                 (A") (A') (A") (A') (A') (A") (A") (A") (A') (A')
                 (A") (A') (A') (A") (A") (A") (A') (A") (A') (A')
                 (A") (A') (A") (A') (A") (A') (A') (A') (A") (A')
                 (A") (A") (A') (A') (A") (A") (A') (A") (A') (A")
                 (A') (A') (A") (A") (A') (A') (A") (A') (A') (A')
                 (A") (A") (A') (A") (A') (A") (A') (A") (A') (A')
                 (A') (A") (A") (A") (A') (A") (A') (A') (A') (A")
                 (A") (A') (A") (A') (A') (A") (A') (A") (A") (A')
                 (A') (A") (A') (A") (A") (A') (A') (A") (A') (A")
                 (A') (A") (A') (A") (A') (A") (A") (A') (A') (A")
                 (A') (A") (A') (A') (A") (A") (A') (A") (A') (A')
                 (A") (A') (A") (A') (A') (A") (A') (A") (A') (A")
                 (A") (A') (A") (A') (A") (A') (A") (A') (A') (A")
                 (A") (A') (A") (A') (A') (A") (A") (A') (A') (A")
                 (A') (A") (A') (A") (A') (A') (A")
 The electronic state is 1-A'.
 Alpha  occ. eigenvalues --  -10.18931 -10.18930 -10.18896 -10.18895 -10.18848
 Alpha  occ. eigenvalues --  -10.18848 -10.18813 -10.18813 -10.17956 -10.17955
 Alpha  occ. eigenvalues --  -10.17920 -10.17920 -10.17919 -10.17919 -10.17875
 Alpha  occ. eigenvalues --  -10.17875 -10.17863 -10.17863 -10.17808 -10.17808
 Alpha  occ. eigenvalues --  -10.17781 -10.17781  -0.89340  -0.87865  -0.85549
 Alpha  occ. eigenvalues --   -0.82415  -0.79820  -0.78521  -0.78314  -0.75991
 Alpha  occ. eigenvalues --   -0.74255  -0.72901  -0.69196  -0.67344  -0.62728
 Alpha  occ. eigenvalues --   -0.62370  -0.61108  -0.59964  -0.59301  -0.57689
 Alpha  occ. eigenvalues --   -0.52709  -0.52573  -0.52293  -0.49654  -0.48513
 Alpha  occ. eigenvalues --   -0.47160  -0.46110  -0.45590  -0.45476  -0.43928
 Alpha  occ. eigenvalues --   -0.43182  -0.42578  -0.41808  -0.41572  -0.41386
 Alpha  occ. eigenvalues --   -0.40692  -0.40405  -0.39579  -0.38193  -0.36732
 Alpha  occ. eigenvalues --   -0.36341  -0.35550  -0.34094  -0.33809  -0.33058
 Alpha  occ. eigenvalues --   -0.32930  -0.31612  -0.29665  -0.28406  -0.26623
 Alpha  occ. eigenvalues --   -0.24364  -0.22582  -0.17855
 Alpha virt. eigenvalues --   -0.09755  -0.04464  -0.02747  -0.00147   0.02073
 Alpha virt. eigenvalues --    0.02370   0.03189   0.04746   0.04859   0.04871
 Alpha virt. eigenvalues --    0.06161   0.06575   0.07968   0.08162   0.08303
 Alpha virt. eigenvalues --    0.09607   0.10049   0.11524   0.11533   0.13796
 Alpha virt. eigenvalues --    0.14111   0.14670   0.18092   0.18194   0.18832
 Alpha virt. eigenvalues --    0.19391   0.22815   0.23002   0.24379   0.24942
 Alpha virt. eigenvalues --    0.25581   0.27528   0.27575   0.28012   0.28228
 Alpha virt. eigenvalues --    0.28947   0.29389   0.30158   0.30759   0.31175
 Alpha virt. eigenvalues --    0.32897   0.34528   0.36420   0.36484   0.37134
 Alpha virt. eigenvalues --    0.37503   0.37629   0.37651   0.38116   0.38643
 Alpha virt. eigenvalues --    0.39094   0.39439   0.39739   0.40236   0.40435
 Alpha virt. eigenvalues --    0.41918   0.41926   0.41940   0.42289   0.42318
 Alpha virt. eigenvalues --    0.42643   0.43748   0.44233   0.44835   0.45295
 Alpha virt. eigenvalues --    0.45683   0.45924   0.45953   0.46379   0.47165
 Alpha virt. eigenvalues --    0.47805   0.47809   0.47978   0.48073   0.48231
 Alpha virt. eigenvalues --    0.48568   0.49414   0.49572   0.51377   0.51846
 Alpha virt. eigenvalues --    0.52370   0.53118   0.53671   0.55998   0.57923
 Alpha virt. eigenvalues --    0.57955   0.59048   0.59201   0.60433   0.60585
 Alpha virt. eigenvalues --    0.60693   0.61101   0.61690   0.62105   0.62173
 Alpha virt. eigenvalues --    0.63432   0.63481   0.64458   0.64535   0.65533
 Alpha virt. eigenvalues --    0.66693   0.66910   0.67680   0.67724   0.70658
 Alpha virt. eigenvalues --    0.71305   0.71405   0.71494   0.72803   0.73989
 Alpha virt. eigenvalues --    0.75405   0.75894   0.76289   0.77801   0.77809
 Alpha virt. eigenvalues --    0.78943   0.79160   0.79723   0.81162   0.81509
 Alpha virt. eigenvalues --    0.82881   0.83001   0.84383   0.84585   0.84713
 Alpha virt. eigenvalues --    0.88087   0.89711   0.89765   0.91536   0.92083
 Alpha virt. eigenvalues --    0.92578   0.93749   0.95806   0.96107   0.96442
 Alpha virt. eigenvalues --    0.96590   0.96905   0.98547   1.00356   1.01118
 Alpha virt. eigenvalues --    1.02686   1.03027   1.03354   1.04405   1.05244
 Alpha virt. eigenvalues --    1.05439   1.05525   1.05950   1.07395   1.07547
 Alpha virt. eigenvalues --    1.07686   1.08438   1.10005   1.10036   1.12070
 Alpha virt. eigenvalues --    1.13223   1.13544   1.13650   1.14526   1.15341
 Alpha virt. eigenvalues --    1.17432   1.18332   1.19657   1.20432   1.23014
 Alpha virt. eigenvalues --    1.23618   1.27884   1.28234   1.30579   1.32076
 Alpha virt. eigenvalues --    1.32743   1.34942   1.37641   1.39236   1.39896
 Alpha virt. eigenvalues --    1.39942   1.40725   1.42751   1.43476   1.43554
 Alpha virt. eigenvalues --    1.45057   1.46086   1.47119   1.47538   1.48841
 Alpha virt. eigenvalues --    1.49280   1.49417   1.50258   1.50674   1.52268
 Alpha virt. eigenvalues --    1.52650   1.53402   1.54331   1.54372   1.54781
 Alpha virt. eigenvalues --    1.54807   1.57107   1.57715   1.58569   1.59882
 Alpha virt. eigenvalues --    1.60106   1.62692   1.63242   1.64856   1.66641
 Alpha virt. eigenvalues --    1.69292   1.69605   1.69709   1.70649   1.71804
 Alpha virt. eigenvalues --    1.72459   1.72619   1.73075   1.73096   1.73680
 Alpha virt. eigenvalues --    1.77494   1.78519   1.79157   1.79419   1.80511
 Alpha virt. eigenvalues --    1.81616   1.81887   1.82058   1.83581   1.84039
 Alpha virt. eigenvalues --    1.85487   1.87392   1.87456   1.87577   1.87728
 Alpha virt. eigenvalues --    1.88131   1.88613   1.90743   1.91387   1.92190
 Alpha virt. eigenvalues --    1.92193   1.92572   1.92670   1.93517   1.93938
 Alpha virt. eigenvalues --    1.94544   1.95483   1.97262   1.99429   2.00088
 Alpha virt. eigenvalues --    2.00602   2.01362   2.03019   2.05757   2.08293
 Alpha virt. eigenvalues --    2.09111   2.09256   2.09792   2.12192   2.14098
 Alpha virt. eigenvalues --    2.15528   2.15584   2.17200   2.19751   2.20833
 Alpha virt. eigenvalues --    2.21576   2.22525   2.23381   2.24503   2.26441
 Alpha virt. eigenvalues --    2.26972   2.27242   2.27719   2.28046   2.29391
 Alpha virt. eigenvalues --    2.33301   2.35725   2.39155   2.39384   2.40817
 Alpha virt. eigenvalues --    2.42649   2.43076   2.45776   2.45994   2.46870
 Alpha virt. eigenvalues --    2.51623   2.51954   2.53354   2.53485   2.55138
 Alpha virt. eigenvalues --    2.56159   2.58701   2.58838   2.59764   2.59776
 Alpha virt. eigenvalues --    2.60682   2.61147   2.61719   2.62222   2.63349
 Alpha virt. eigenvalues --    2.63999   2.64478   2.66054   2.66794   2.67121
 Alpha virt. eigenvalues --    2.67374   2.68356   2.68872   2.68876   2.69372
 Alpha virt. eigenvalues --    2.69557   2.69907   2.70083   2.70281   2.73482
 Alpha virt. eigenvalues --    2.74771   2.74836   2.76066   2.77101   2.77577
 Alpha virt. eigenvalues --    2.78232   2.78455   2.78850   2.80822   2.82359
 Alpha virt. eigenvalues --    2.85535   2.85993   2.86737   2.87294   2.90966
 Alpha virt. eigenvalues --    2.91783   2.92195   2.93676   2.95232   2.95887
 Alpha virt. eigenvalues --    2.99270   2.99858   3.03165   3.05604   3.06852
 Alpha virt. eigenvalues --    3.07371   3.15988   3.16029   3.16647   3.19843
 Alpha virt. eigenvalues --    3.20017   3.23601   3.29134   3.29680   3.31610
 Alpha virt. eigenvalues --    3.35095   3.35458   3.35677   3.35858   3.38023
 Alpha virt. eigenvalues --    3.39887   3.41413   3.44960   3.45362   3.47993
 Alpha virt. eigenvalues --    3.48278   3.50401   3.53073   3.57439   3.58649
 Alpha virt. eigenvalues --    3.61466   3.62620   3.63208   3.63698   3.65910
 Alpha virt. eigenvalues --    3.67534   3.67678   4.00384   4.00442   4.01859
 Alpha virt. eigenvalues --    4.02182   4.16133   4.16678   4.17360   4.21240
 Alpha virt. eigenvalues --    4.22396   4.22517   4.25488   4.38492   4.62290
 Alpha virt. eigenvalues --    4.79179   4.79740   4.80562   4.82562   4.83014
 Alpha virt. eigenvalues --   23.39176  23.54541  23.69085  23.77378  23.80419
 Alpha virt. eigenvalues --   23.81537  23.86099  23.89067  23.89154  23.92210
 Alpha virt. eigenvalues --   23.97563  23.98365  24.09049  24.09932  24.10529
 Alpha virt. eigenvalues --   24.12220  24.13779  24.14375  24.15775  24.15810
 Alpha virt. eigenvalues --   24.20452  24.20497
          Condensed to atoms (all electrons):
 Mulliken charges:
               1
     1  C    0.000000
     2  C    0.000000
     3  C    0.000000
     4  C    0.000000
     5  C    0.000000
     6  C    0.000000
     7  C    0.000000
     8  C    0.000000
     9  C    0.000000
    10  C    0.000000
    11  H    0.000000
    12  H    0.000000
    13  H    0.000000
    14  H    0.000000
    15  H    0.000000
    16  H    0.000000
    17  C    0.000000
    18  C    0.000000
    19  C    0.000000
    20  C    0.000000
    21  H    0.000000
    22  H    0.000000
    23  C    0.000000
    24  C    0.000000
    25  C    0.000000
    26  C    0.000000
    27  H    0.000000
    28  H    0.000000
    29  C    0.000000
    30  C    0.000000
    31  C    0.000000
    32  C    0.000000
    33  H    0.000000
    34  H    0.000000
    35  H    0.000000
    36  H    0.000000
    37  C   -0.059168
    38  C   -0.059168
    39  C   -0.055977
    40  C   -0.055977
    41  C   -0.092198
    42  C   -0.092198
    43  C   -0.016525
    44  C   -0.054498
    45  C   -0.016525
    46  C   -0.054498
    47  H    0.082122
    48  H    0.074853
    49  H    0.074853
    50  H    0.082122
    51  H    0.094847
    52  H    0.094847
    53  C   -0.020341
    54  C   -0.054498
    55  C   -0.020341
    56  C   -0.054498
    57  H    0.073428
    58  H    0.073428
    59  C   -0.016525
    60  C   -0.059168
    61  C   -0.016525
    62  C   -0.059168
    63  H    0.074853
    64  H    0.074853
    65  C   -0.055977
    66  C   -0.092198
    67  C   -0.055977
    68  C   -0.092198
    69  H    0.082122
    70  H    0.094847
    71  H    0.094847
    72  H    0.082122
 Sum of Mulliken charges =   0.00000
 Mulliken charges with hydrogens summed into heavy atoms:
               1
     1  C    0.000000
     2  C    0.000000
     3  C    0.000000
     4  C    0.000000
     5  C    0.000000
     6  C    0.000000
     7  C    0.000000
     8  C    0.000000
     9  C    0.000000
    10  C    0.000000
    17  C    0.000000
    18  C    0.000000
    19  C    0.000000
    20  C    0.000000
    23  C    0.000000
    24  C    0.000000
    25  C    0.000000
    26  C    0.000000
    29  C    0.000000
    30  C    0.000000
    31  C    0.000000
    32  C    0.000000
    37  C   -0.059168
    38  C   -0.059168
    39  C    0.026144
    40  C    0.026144
    41  C    0.002649
    42  C    0.002649
    43  C    0.058328
    44  C   -0.054498
    45  C    0.058328
    46  C   -0.054498
    53  C    0.053087
    54  C   -0.054498
    55  C    0.053087
    56  C   -0.054498
    59  C    0.058328
    60  C   -0.059168
    61  C    0.058328
    62  C   -0.059168
    65  C    0.026144
    66  C    0.002649
    67  C    0.026144
    68  C    0.002649
         Mulliken charges condensed to fragments:
      1      0.000000
      2      0.000000
 Electronic spatial extent (au):  <R**2>=          14805.2137
 Charge=              0.0000 electrons
 Dipole moment (field-independent basis, Debye):
    X=              0.0000    Y=              0.0000    Z=              0.0000  Tot=              0.0000
 Quadrupole moment (field-independent basis, Debye-Ang):
   XX=           -136.3921   YY=           -110.7480   ZZ=           -109.0115
   XY=              0.0000   XZ=              0.0000   YZ=              0.0000
 Traceless Quadrupole moment (field-independent basis, Debye-Ang):
   XX=            -17.6749   YY=              7.9692   ZZ=              9.7057
   XY=              0.0000   XZ=              0.0000   YZ=              0.0000
 Octapole moment (field-independent basis, Debye-Ang**2):
  XXX=            940.3266  YYY=            763.5292  ZZZ=              0.0000  XYY=            254.5097
  XXY=            313.4422  XXZ=              0.0000  XZZ=            250.5190  YZZ=            250.5189
  YYZ=              0.0000  XYZ=              0.0000
 Hexadecapole moment (field-independent basis, Debye-Ang**3):
 XXXX=          -4476.3273 YYYY=          -4626.0451 ZZZZ=         -10461.4324 XXXY=          -2160.9617
 XXXZ=              0.0000 YYYX=          -1754.6641 YYYZ=              0.0000 ZZZX=              0.0000
 ZZZY=              0.0000 XXYY=          -1561.6239 XXZZ=          -2783.6488 YYZZ=          -2544.9312
 XXYZ=              0.0000 YYXZ=              0.0000 ZZXY=           -575.7168
 N-N= 1.494327112429D+03 E-N=-4.953709176421D+03  KE= 8.433374905210D+02
 Symmetry A'   KE= 4.567052305497D+02
 Symmetry A"   KE= 3.866322599712D+02
 No NMR shielding tensors so no spin-rotation constants.
 Leave Link  601 at Wed Sep 27 16:57:36 2023, MaxMem=  3221225472 cpu:              14.9 elap:               0.5
 (Enter /home/center/opt/aarch64/apps/gaussian16/c01/g16/l122.exe)
 CPIOFr:  IOpCl= 0 IRwI=-1 IRwCP=  731 ICalc=  4 LCPTot=     1419224 Len1MO=     3708034 IndFrg=    19959394
 Restoring MOs from calculation   1 to rwf.
 CPIOFr:  IOpCl= 0 IRwI=-2 IRwCP=  731 ICalc=  0 LCPTot=     1419224 Len1MO=     3708034 IndFrg=     5127258
 Counterpoise corrected energy =   -1694.044842451927
                   BSSE energy =       0.000618056732
              sum of fragments =   -1694.039683044254
           complexation energy =      -3.63 kcal/mole (raw)
           complexation energy =      -3.24 kcal/mole (corrected)
 Leave Link  122 at Wed Sep 27 16:57:39 2023, MaxMem=  3221225472 cpu:               8.3 elap:               0.4
 (Enter /home/center/opt/aarch64/apps/gaussian16/c01/g16/l9999.exe)

 Test job not archived.
 1\1\GINC-FX0524\SP\RB3LYP\6-311G(d,p)\C44H28\Z40145W\27-Sep-2023\0\\#P
  TEST b3lyp/6-311G** EmpiricalDispersion=GD3 counterpoise=2\\pentacene
 _A1=0_A2=0_A3=45_p2\\0,1\C,0,-0.5039478476,0.5239478476,-3.6612755801\
 C,0,0.5239480325,-0.5039480325,-3.6612755629\C,0,-0.9861248463,1.00612
 48463,-4.9235927708\C,0,1.0061250889,-0.9861250889,-4.9235926697\C,0,-
 0.4963213507,0.5163213507,-6.096356521\C,0,0.5163216812,-0.4963216812,
 -6.0963564796\C,0,-0.9844684311,1.0044684311,-2.4533174875\C,0,-0.5044
 88426,0.524488426,-1.2140288145\C,0,1.0044685359,-0.9844685359,-2.4533
 173917\C,0,0.5244885437,-0.5044885437,-1.2140288362\H,0,-1.7533559667,
 1.7733559667,-4.9232600459\H,0,-1.7521866813,1.7721866813,-2.453928581
 5\H,0,1.7721859268,-1.7521859268,-2.4539284818\H,0,1.7733558421,-1.753
 3558421,-4.9232597785\H,0,0.8905568758,-0.8705568758,-7.0425276922\H,0
 ,-0.8705565046,0.8905565046,-7.042527775\C,0,-0.9848184961,1.004818496
 1,0.0099998782\C,0,-0.5044883957,0.5244883957,1.2340295553\C,0,1.00481
 85643,-0.9848185643,0.0099998696\C,0,0.5244885146,-0.5044885146,1.2340
 295261\H,0,-1.7524699697,1.7724699697,0.0099999205\H,0,1.772468921,-1.
 752468921,0.0099999641\C,0,-0.9844683048,1.0044683048,2.4733171385\C,0
 ,-0.5039477114,0.5239477114,3.681276331\C,0,1.0044684211,-0.9844684211
 ,2.4733170835\C,0,0.5239479079,-0.5039479079,3.6812763217\H,0,-1.75218
 65527,1.7721865527,2.4739285326\H,0,1.7721858092,-1.7521858092,2.47392
 83796\C,0,-0.9861245177,1.0061245177,4.9435920588\C,0,-0.4963209372,0.
 5163209372,6.116356633\C,0,1.0061247659,-0.9861247659,4.9435919377\C,0
 ,0.5163212637,-0.4963212637,6.1163566075\H,0,-1.7533556504,1.773355650
 4,4.9432601504\H,0,-0.8705567426,0.8905567426,7.0625274368\H,0,0.89055
 70967,-0.8705570967,7.0625272142\H,0,1.7733555414,-1.7533555414,4.9432
 599297\C,0,5.9960521524,0.5239478476,-3.6612755801\C,0,7.0239480325,-0
 .5039480325,-3.6612755629\C,0,5.5138751537,1.0061248463,-4.9235927708\
 C,0,7.5061250889,-0.9861250889,-4.9235926697\C,0,6.0036786493,0.516321
 3507,-6.096356521\C,0,7.0163216812,-0.4963216812,-6.0963564796\C,0,5.5
 155315689,1.0044684311,-2.4533174875\C,0,5.995511574,0.524488426,-1.21
 40288145\C,0,7.5044685359,-0.9844685359,-2.4533173917\C,0,7.0244885437
 ,-0.5044885437,-1.2140288362\H,0,4.7466440333,1.7733559667,-4.92326004
 59\H,0,4.7478133187,1.7721866813,-2.4539285815\H,0,8.2721859268,-1.752
 1859268,-2.4539284818\H,0,8.2733558421,-1.7533558421,-4.9232597785\H,0
 ,7.3905568758,-0.8705568758,-7.0425276922\H,0,5.6294434954,0.890556504
 6,-7.042527775\C,0,5.5151815039,1.0048184961,0.0099998782\C,0,5.995511
 6043,0.5244883957,1.2340295553\C,0,7.5048185643,-0.9848185643,0.009999
 8696\C,0,7.0244885146,-0.5044885146,1.2340295261\H,0,4.7475300303,1.77
 24699697,0.0099999205\H,0,8.272468921,-1.752468921,0.0099999641\C,0,5.
 5155316952,1.0044683048,2.4733171385\C,0,5.9960522886,0.5239477114,3.6
 81276331\C,0,7.5044684211,-0.9844684211,2.4733170835\C,0,7.0239479079,
 -0.5039479079,3.6812763217\H,0,4.7478134473,1.7721865527,2.4739285326\
 H,0,8.2721858092,-1.7521858092,2.4739283796\C,0,5.5138754823,1.0061245
 177,4.9435920588\C,0,6.0036790628,0.5163209372,6.116356633\C,0,7.50612
 47659,-0.9861247659,4.9435919377\C,0,7.0163212637,-0.4963212637,6.1163
 566075\H,0,4.7466443496,1.7733556504,4.9432601504\H,0,5.6294432574,0.8
 905567426,7.0625274368\H,0,7.3905570967,-0.8705570967,7.0625272142\H,0
 ,8.2733555414,-1.7533555414,4.9432599297\\Version=Fujitsu-Arm-G16RevC.
 01\State=1-A'\HF=-847.0198415\RMSD=3.180e-09\Dipole=-0.0000009,0.00000
 1,0.\Quadrupole=-8.2407719,-6.0285037,14.2692757,-17.9698607,0.,0.\PG=
 CS [SG(C4H4),X(C40H24)]\\@


 Happiness is a conscious choice, not an automatic response.
 -- Mildred Barthel
 Job cpu time:       0 days  3 hours  5 minutes 29.6 seconds.
 Elapsed time:       0 days  0 hours  4 minutes 47.7 seconds.
 File lengths (MBytes):  RWF=    718 Int=      0 D2E=      0 Chk=    208 Scr=      1
 Normal termination of Gaussian 16 at Wed Sep 27 16:57:45 2023.
