 Entering Gaussian System, Link 0=g16
 Initial command:
 /home/center/opt/aarch64/apps/gaussian16/c01/g16/l1.exe "/data/tmp/Gtmp/1006960/Gau-49.inp" -scrdir="/data/tmp/Gtmp/1006960/"
 Entering Link 1 = /home/center/opt/aarch64/apps/gaussian16/c01/g16/l1.exe PID=        50.
  
 Copyright (c) 1988-2019, Gaussian, Inc.  All Rights Reserved.
  
 This is part of the Gaussian(R) 16 program.  It is based on
 the Gaussian(R) 09 system (copyright 2009, Gaussian, Inc.),
 the Gaussian(R) 03 system (copyright 2003, Gaussian, Inc.),
 the Gaussian(R) 98 system (copyright 1998, Gaussian, Inc.),
 the Gaussian(R) 94 system (copyright 1995, Gaussian, Inc.),
 the Gaussian 92(TM) system (copyright 1992, Gaussian, Inc.),
 the Gaussian 90(TM) system (copyright 1990, Gaussian, Inc.),
 the Gaussian 88(TM) system (copyright 1988, Gaussian, Inc.),
 the Gaussian 86(TM) system (copyright 1986, Carnegie Mellon
 University), and the Gaussian 82(TM) system (copyright 1983,
 Carnegie Mellon University). Gaussian is a federally registered
 trademark of Gaussian, Inc.
  
 This software contains proprietary and confidential information,
 including trade secrets, belonging to Gaussian, Inc.
  
 This software is provided under written license and may be
 used, copied, transmitted, or stored only in accord with that
 written license.
  
 The following legend is applicable only to US Government
 contracts under FAR:
  
                    RESTRICTED RIGHTS LEGEND
  
 Use, reproduction and disclosure by the US Government is
 subject to restrictions as set forth in subparagraphs (a)
 and (c) of the Commercial Computer Software - Restricted
 Rights clause in FAR 52.227-19.
  
 Gaussian, Inc.
 340 Quinnipiac St., Bldg. 40, Wallingford CT 06492
  
  
 ---------------------------------------------------------------
 Warning -- This program may not be used in any manner that
 competes with the business of Gaussian, Inc. or will provide
 assistance to any competitor of Gaussian, Inc.  The licensee
 of this program is prohibited from giving any competitor of
 Gaussian, Inc. access to this program.  By using this program,
 the user acknowledges that Gaussian, Inc. is engaged in the
 business of creating and licensing software in the field of
 computational chemistry and represents and warrants to the
 licensee that it is not a competitor of Gaussian, Inc. and that
 it will not use this program in any manner prohibited above.
 ---------------------------------------------------------------
  

 Cite this work as:
 Gaussian 16, Revision C.01,
 M. J. Frisch, G. W. Trucks, H. B. Schlegel, G. E. Scuseria, 
 M. A. Robb, J. R. Cheeseman, G. Scalmani, V. Barone, 
 G. A. Petersson, H. Nakatsuji, X. Li, M. Caricato, A. V. Marenich, 
 J. Bloino, B. G. Janesko, R. Gomperts, B. Mennucci, H. P. Hratchian, 
 J. V. Ortiz, A. F. Izmaylov, J. L. Sonnenberg, D. Williams-Young, 
 F. Ding, F. Lipparini, F. Egidi, J. Goings, B. Peng, A. Petrone, 
 T. Henderson, D. Ranasinghe, V. G. Zakrzewski, J. Gao, N. Rega, 
 G. Zheng, W. Liang, M. Hada, M. Ehara, K. Toyota, R. Fukuda, 
 J. Hasegawa, M. Ishida, T. Nakajima, Y. Honda, O. Kitao, H. Nakai, 
 T. Vreven, K. Throssell, J. A. Montgomery, Jr., J. E. Peralta, 
 F. Ogliaro, M. J. Bearpark, J. J. Heyd, E. N. Brothers, K. N. Kudin, 
 V. N. Staroverov, T. A. Keith, R. Kobayashi, J. Normand, 
 K. Raghavachari, A. P. Rendell, J. C. Burant, S. S. Iyengar, 
 J. Tomasi, M. Cossi, J. M. Millam, M. Klene, C. Adamo, R. Cammi, 
 J. W. Ochterski, R. L. Martin, K. Morokuma, O. Farkas, 
 J. B. Foresman, and D. J. Fox, Gaussian, Inc., Wallingford CT, 2019.
 
 ************************************************
 Gaussian 16:  Fujitsu-Arm-G16RevC.01  3-Jul-2019
                   27-Sep-2023 
 ************************************************
 %mem=24GB
 %nproc=42
 Will use up to   42 processors via shared memory.
 -------------------------------------------------------------
 #P TEST b3lyp/6-311G** EmpiricalDispersion=GD3 counterpoise=2
 -------------------------------------------------------------
 1/38=1,62=2,172=1/1;
 2/12=2,17=6,18=5,40=1/2;
 1/38=1,53=2,62=2,63=1/22;
 3/5=4,6=6,7=101,11=2,25=1,30=1,74=-5,124=31/1,2,3;
 4//1;
 5/5=2,38=5/2;
 6/7=2,8=2,9=2,10=2,28=1/1;
 1/53=2,62=2,63=1/22;
 3/5=7,6=11,7=101,11=2,25=1,30=1,74=-5,82=7,124=31/1,2,3;
 4//1;
 5/5=2,38=5/2;
 6/7=2,8=2,9=2,10=2,28=1/1;
 1/53=2,62=2,63=1/22(-4);
 99/5=1,9=1/99;
 Leave Link    1 at Wed Sep 27 16:37:45 2023, MaxMem=  3221225472 cpu:               6.3 elap:               0.2
 (Enter /home/center/opt/aarch64/apps/gaussian16/c01/g16/l101.exe)
 ----------------------------
 pentacene_A1=0_A2=0_A3=45_t1
 ----------------------------
 Symbolic Z-matrix:
 Charge =  0 Multiplicity = 1 in supermolecule
 Charge =  0 Multiplicity = 1 in fragment      1.
 Charge =  0 Multiplicity = 1 in fragment      2.
 C(Fragment=1)        -0.50395   0.52395  -3.66128 
 C(Fragment=1)         0.52395  -0.50395  -3.66128 
 C(Fragment=1)        -0.98612   1.00612  -4.92359 
 C(Fragment=1)         1.00613  -0.98613  -4.92359 
 C(Fragment=1)        -0.49632   0.51632  -6.09636 
 C(Fragment=1)         0.51632  -0.49632  -6.09636 
 C(Fragment=1)        -0.98447   1.00447  -2.45332 
 C(Fragment=1)        -0.50449   0.52449  -1.21403 
 C(Fragment=1)         1.00447  -0.98447  -2.45332 
 C(Fragment=1)         0.52449  -0.50449  -1.21403 
 H(Fragment=1)        -1.75336   1.77336  -4.92326 
 H(Fragment=1)        -1.75219   1.77219  -2.45393 
 H(Fragment=1)         1.77219  -1.75219  -2.45393 
 H(Fragment=1)         1.77336  -1.75336  -4.92326 
 H(Fragment=1)         0.89056  -0.87056  -7.04253 
 H(Fragment=1)        -0.87056   0.89056  -7.04253 
 C(Fragment=1)        -0.98482   1.00482   0.01 
 C(Fragment=1)        -0.50449   0.52449   1.23403 
 C(Fragment=1)         1.00482  -0.98482   0.01 
 C(Fragment=1)         0.52449  -0.50449   1.23403 
 H(Fragment=1)        -1.75247   1.77247   0.01 
 H(Fragment=1)         1.77247  -1.75247   0.01 
 C(Fragment=1)        -0.98447   1.00447   2.47332 
 C(Fragment=1)        -0.50395   0.52395   3.68128 
 C(Fragment=1)         1.00447  -0.98447   2.47332 
 C(Fragment=1)         0.52395  -0.50395   3.68128 
 H(Fragment=1)        -1.75219   1.77219   2.47393 
 H(Fragment=1)         1.77219  -1.75219   2.47393 
 C(Fragment=1)        -0.98612   1.00612   4.94359 
 C(Fragment=1)        -0.49632   0.51632   6.11636 
 C(Fragment=1)         1.00612  -0.98612   4.94359 
 C(Fragment=1)         0.51632  -0.49632   6.11636 
 H(Fragment=1)        -1.75336   1.77336   4.94326 
 H(Fragment=1)        -0.87056   0.89056   7.06253 
 H(Fragment=1)         0.89056  -0.87056   7.06253 
 H(Fragment=1)         1.77336  -1.75336   4.94326 
 C(Fragment=2)         4.02395   5.02395  -3.66128 
 C(Fragment=2)         2.99605   3.99605  -3.66128 
 C(Fragment=2)         4.50612   5.50612  -4.92359 
 C(Fragment=2)         2.51387   3.51387  -4.92359 
 C(Fragment=2)         4.01632   5.01632  -6.09636 
 C(Fragment=2)         3.00368   4.00368  -6.09636 
 C(Fragment=2)         4.50447   5.50447  -2.45332 
 C(Fragment=2)         4.02449   5.02449  -1.21403 
 C(Fragment=2)         2.51553   3.51553  -2.45332 
 C(Fragment=2)         2.99551   3.99551  -1.21403 
 H(Fragment=2)         5.27336   6.27336  -4.92326 
 H(Fragment=2)         5.27219   6.27219  -2.45393 
 H(Fragment=2)         1.74781   2.74781  -2.45393 
 H(Fragment=2)         1.74664   2.74664  -4.92326 
 H(Fragment=2)         2.62944   3.62944  -7.04253 
 H(Fragment=2)         4.39056   5.39056  -7.04253 
 C(Fragment=2)         4.50482   5.50482   0.01 
 C(Fragment=2)         4.02449   5.02449   1.23403 
 C(Fragment=2)         2.51518   3.51518   0.01 
 C(Fragment=2)         2.99551   3.99551   1.23403 
 H(Fragment=2)         5.27247   6.27247   0.01 
 H(Fragment=2)         1.74753   2.74753   0.01 
 C(Fragment=2)         4.50447   5.50447   2.47332 
 C(Fragment=2)         4.02395   5.02395   3.68128 
 C(Fragment=2)         2.51553   3.51553   2.47332 
 C(Fragment=2)         2.99605   3.99605   3.68128 
 H(Fragment=2)         5.27219   6.27219   2.47393 
 H(Fragment=2)         1.74781   2.74781   2.47393 
 C(Fragment=2)         4.50612   5.50612   4.94359 
 C(Fragment=2)         4.01632   5.01632   6.11636 
 C(Fragment=2)         2.51388   3.51388   4.94359 
 C(Fragment=2)         3.00368   4.00368   6.11636 
 H(Fragment=2)         5.27336   6.27336   4.94326 
 H(Fragment=2)         4.39056   5.39056   7.06253 
 H(Fragment=2)         2.62944   3.62944   7.06253 
 H(Fragment=2)         1.74664   2.74664   4.94326 
 
 ITRead=  0  0  0  0  0  0  0  0  0  0  0  0  0  0  0  0  0  0  0  0
 ITRead=  0  0  0  0  0  0  0  0  0  0  0  0  0  0  0  0  0  0  0  0
 ITRead=  0  0  0  0  0  0  0  0  0  0  0  0  0  0  0  0  0  0  0  0
 ITRead=  0  0  0  0  0  0  0  0  0  0  0  0
 MicOpt= -1 -1 -1 -1 -1 -1 -1 -1 -1 -1 -1 -1 -1 -1 -1 -1 -1 -1 -1 -1
 MicOpt= -1 -1 -1 -1 -1 -1 -1 -1 -1 -1 -1 -1 -1 -1 -1 -1 -1 -1 -1 -1
 MicOpt= -1 -1 -1 -1 -1 -1 -1 -1 -1 -1 -1 -1 -1 -1 -1 -1 -1 -1 -1 -1
 MicOpt= -1 -1 -1 -1 -1 -1 -1 -1 -1 -1 -1 -1
 NAtoms=     72 NQM=       72 NQMF=       0 NMMI=      0 NMMIF=      0
                NMic=       0 NMicF=      0.
                    Isotopes and Nuclear Properties:
 (Nuclear quadrupole moments (NQMom) in fm**2, nuclear magnetic moments (NMagM)
  in nuclear magnetons)

  Atom         1           2           3           4           5           6           7           8           9          10
 IAtWgt=          12          12          12          12          12          12          12          12          12          12
 AtmWgt=  12.0000000  12.0000000  12.0000000  12.0000000  12.0000000  12.0000000  12.0000000  12.0000000  12.0000000  12.0000000
 NucSpn=           0           0           0           0           0           0           0           0           0           0
 AtZEff=   0.0000000   0.0000000   0.0000000   0.0000000   0.0000000   0.0000000   0.0000000   0.0000000   0.0000000   0.0000000
 NQMom=    0.0000000   0.0000000   0.0000000   0.0000000   0.0000000   0.0000000   0.0000000   0.0000000   0.0000000   0.0000000
 NMagM=    0.0000000   0.0000000   0.0000000   0.0000000   0.0000000   0.0000000   0.0000000   0.0000000   0.0000000   0.0000000
 AtZNuc=   6.0000000   6.0000000   6.0000000   6.0000000   6.0000000   6.0000000   6.0000000   6.0000000   6.0000000   6.0000000

  Atom        11          12          13          14          15          16          17          18          19          20
 IAtWgt=           1           1           1           1           1           1          12          12          12          12
 AtmWgt=   1.0078250   1.0078250   1.0078250   1.0078250   1.0078250   1.0078250  12.0000000  12.0000000  12.0000000  12.0000000
 NucSpn=           1           1           1           1           1           1           0           0           0           0
 AtZEff=   0.0000000   0.0000000   0.0000000   0.0000000   0.0000000   0.0000000   0.0000000   0.0000000   0.0000000   0.0000000
 NQMom=    0.0000000   0.0000000   0.0000000   0.0000000   0.0000000   0.0000000   0.0000000   0.0000000   0.0000000   0.0000000
 NMagM=    2.7928460   2.7928460   2.7928460   2.7928460   2.7928460   2.7928460   0.0000000   0.0000000   0.0000000   0.0000000
 AtZNuc=   1.0000000   1.0000000   1.0000000   1.0000000   1.0000000   1.0000000   6.0000000   6.0000000   6.0000000   6.0000000

  Atom        21          22          23          24          25          26          27          28          29          30
 IAtWgt=           1           1          12          12          12          12           1           1          12          12
 AtmWgt=   1.0078250   1.0078250  12.0000000  12.0000000  12.0000000  12.0000000   1.0078250   1.0078250  12.0000000  12.0000000
 NucSpn=           1           1           0           0           0           0           1           1           0           0
 AtZEff=   0.0000000   0.0000000   0.0000000   0.0000000   0.0000000   0.0000000   0.0000000   0.0000000   0.0000000   0.0000000
 NQMom=    0.0000000   0.0000000   0.0000000   0.0000000   0.0000000   0.0000000   0.0000000   0.0000000   0.0000000   0.0000000
 NMagM=    2.7928460   2.7928460   0.0000000   0.0000000   0.0000000   0.0000000   2.7928460   2.7928460   0.0000000   0.0000000
 AtZNuc=   1.0000000   1.0000000   6.0000000   6.0000000   6.0000000   6.0000000   1.0000000   1.0000000   6.0000000   6.0000000

  Atom        31          32          33          34          35          36          37          38          39          40
 IAtWgt=          12          12           1           1           1           1          12          12          12          12
 AtmWgt=  12.0000000  12.0000000   1.0078250   1.0078250   1.0078250   1.0078250  12.0000000  12.0000000  12.0000000  12.0000000
 NucSpn=           0           0           1           1           1           1           0           0           0           0
 AtZEff=   0.0000000   0.0000000   0.0000000   0.0000000   0.0000000   0.0000000   0.0000000   0.0000000   0.0000000   0.0000000
 NQMom=    0.0000000   0.0000000   0.0000000   0.0000000   0.0000000   0.0000000   0.0000000   0.0000000   0.0000000   0.0000000
 NMagM=    0.0000000   0.0000000   2.7928460   2.7928460   2.7928460   2.7928460   0.0000000   0.0000000   0.0000000   0.0000000
 AtZNuc=   6.0000000   6.0000000   1.0000000   1.0000000   1.0000000   1.0000000   6.0000000   6.0000000   6.0000000   6.0000000

  Atom        41          42          43          44          45          46          47          48          49          50
 IAtWgt=          12          12          12          12          12          12           1           1           1           1
 AtmWgt=  12.0000000  12.0000000  12.0000000  12.0000000  12.0000000  12.0000000   1.0078250   1.0078250   1.0078250   1.0078250
 NucSpn=           0           0           0           0           0           0           1           1           1           1
 AtZEff=   0.0000000   0.0000000   0.0000000   0.0000000   0.0000000   0.0000000   0.0000000   0.0000000   0.0000000   0.0000000
 NQMom=    0.0000000   0.0000000   0.0000000   0.0000000   0.0000000   0.0000000   0.0000000   0.0000000   0.0000000   0.0000000
 NMagM=    0.0000000   0.0000000   0.0000000   0.0000000   0.0000000   0.0000000   2.7928460   2.7928460   2.7928460   2.7928460
 AtZNuc=   6.0000000   6.0000000   6.0000000   6.0000000   6.0000000   6.0000000   1.0000000   1.0000000   1.0000000   1.0000000

  Atom        51          52          53          54          55          56          57          58          59          60
 IAtWgt=           1           1          12          12          12          12           1           1          12          12
 AtmWgt=   1.0078250   1.0078250  12.0000000  12.0000000  12.0000000  12.0000000   1.0078250   1.0078250  12.0000000  12.0000000
 NucSpn=           1           1           0           0           0           0           1           1           0           0
 AtZEff=   0.0000000   0.0000000   0.0000000   0.0000000   0.0000000   0.0000000   0.0000000   0.0000000   0.0000000   0.0000000
 NQMom=    0.0000000   0.0000000   0.0000000   0.0000000   0.0000000   0.0000000   0.0000000   0.0000000   0.0000000   0.0000000
 NMagM=    2.7928460   2.7928460   0.0000000   0.0000000   0.0000000   0.0000000   2.7928460   2.7928460   0.0000000   0.0000000
 AtZNuc=   1.0000000   1.0000000   6.0000000   6.0000000   6.0000000   6.0000000   1.0000000   1.0000000   6.0000000   6.0000000

  Atom        61          62          63          64          65          66          67          68          69          70
 IAtWgt=          12          12           1           1          12          12          12          12           1           1
 AtmWgt=  12.0000000  12.0000000   1.0078250   1.0078250  12.0000000  12.0000000  12.0000000  12.0000000   1.0078250   1.0078250
 NucSpn=           0           0           1           1           0           0           0           0           1           1
 AtZEff=   0.0000000   0.0000000   0.0000000   0.0000000   0.0000000   0.0000000   0.0000000   0.0000000   0.0000000   0.0000000
 NQMom=    0.0000000   0.0000000   0.0000000   0.0000000   0.0000000   0.0000000   0.0000000   0.0000000   0.0000000   0.0000000
 NMagM=    0.0000000   0.0000000   2.7928460   2.7928460   0.0000000   0.0000000   0.0000000   0.0000000   2.7928460   2.7928460
 AtZNuc=   6.0000000   6.0000000   1.0000000   1.0000000   6.0000000   6.0000000   6.0000000   6.0000000   1.0000000   1.0000000

  Atom        71          72
 IAtWgt=           1           1
 AtmWgt=   1.0078250   1.0078250
 NucSpn=           1           1
 AtZEff=   0.0000000   0.0000000
 NQMom=    0.0000000   0.0000000
 NMagM=    2.7928460   2.7928460
 AtZNuc=   1.0000000   1.0000000
 Leave Link  101 at Wed Sep 27 16:37:47 2023, MaxMem=  3221225472 cpu:               2.5 elap:               0.1
 (Enter /home/center/opt/aarch64/apps/gaussian16/c01/g16/l202.exe)
 Stoichiometry    C44H28
 Framework group  CS[SG(C4H4),X(C40H24)]
 Deg. of freedom   109
 Full point group                 CS      NOp   2
 Largest Abelian subgroup         CS      NOp   2
 Largest concise Abelian subgroup CS      NOp   2
                         Standard orientation:                         
 ---------------------------------------------------------------------
 Center     Atomic      Atomic             Coordinates (Angstroms)
 Number     Number       Type             X           Y           Z
 ---------------------------------------------------------------------
      1          6           0        0.373279   -2.828427    3.671276
      2          6           0       -1.080386   -2.828427    3.671276
      3          6           0        1.055180   -2.828427    4.933593
      4          6           0       -1.762287   -2.828427    4.933593
      5          6           0        0.362493   -2.828427    6.106357
      6          6           0       -1.069600   -2.828427    6.106357
      7          6           0        1.052837   -2.828427    2.463318
      8          6           0        0.374043   -2.828427    1.224029
      9          6           0       -1.759944   -2.828427    2.463317
     10          6           0       -1.081150   -2.828427    1.224029
     11          1           0        2.140209   -2.828427    4.933260
     12          1           0        2.138555   -2.828427    2.463929
     13          1           0       -2.845661   -2.828427    2.463929
     14          1           0       -2.847315   -2.828427    4.933260
     15          1           0       -1.598849   -2.828427    7.052528
     16          1           0        0.891742   -2.828427    7.052528
     17          6           0        1.053332   -2.828427    0.000000
     18          6           0        0.374043   -2.828427   -1.224029
     19          6           0       -1.760439   -2.828427    0.000000
     20          6           0       -1.081150   -2.828427   -1.224029
     21          1           0        2.138956   -2.828427    0.000000
     22          1           0       -2.846061   -2.828427    0.000000
     23          6           0        1.052837   -2.828427   -2.463318
     24          6           0        0.373279   -2.828427   -3.671276
     25          6           0       -1.759944   -2.828427   -2.463317
     26          6           0       -1.080386   -2.828427   -3.671276
     27          1           0        2.138555   -2.828427   -2.463929
     28          1           0       -2.845661   -2.828427   -2.463929
     29          6           0        1.055180   -2.828427   -4.933593
     30          6           0        0.362493   -2.828427   -6.106357
     31          6           0       -1.762287   -2.828427   -4.933593
     32          6           0       -1.069600   -2.828427   -6.106357
     33          1           0        2.140209   -2.828427   -4.933260
     34          1           0        0.891742   -2.828427   -7.052528
     35          1           0       -1.598849   -2.828427   -7.052528
     36          1           0       -2.847315   -2.828427   -4.933260
     37          6           0        0.353553    3.555259    3.671276
     38          6           0        0.353553    2.101595    3.671276
     39          6           0        0.353553    4.237160    4.933593
     40          6           0        0.353553    1.419694    4.933593
     41          6           0        0.353553    3.544474    6.106357
     42          6           0        0.353553    2.112380    6.106357
     43          6           0        0.353553    4.234818    2.463318
     44          6           0        0.353553    3.556024    1.224029
     45          6           0        0.353553    1.422036    2.463317
     46          6           0        0.353553    2.100830    1.224029
     47          1           0        0.353553    5.322189    4.933260
     48          1           0        0.353553    5.320535    2.463929
     49          1           0        0.353553    0.336320    2.463929
     50          1           0        0.353553    0.334665    4.933260
     51          1           0        0.353553    1.583132    7.052528
     52          1           0        0.353553    4.073722    7.052528
     53          6           0        0.353553    4.235313    0.000000
     54          6           0        0.353553    3.556024   -1.224029
     55          6           0        0.353553    1.421541    0.000000
     56          6           0        0.353553    2.100830   -1.224029
     57          1           0        0.353553    5.320936    0.000000
     58          1           0        0.353553    0.335920    0.000000
     59          6           0        0.353553    4.234818   -2.463318
     60          6           0        0.353553    3.555259   -3.671276
     61          6           0        0.353553    1.422036   -2.463317
     62          6           0        0.353553    2.101595   -3.671276
     63          1           0        0.353553    5.320535   -2.463929
     64          1           0        0.353553    0.336320   -2.463929
     65          6           0        0.353553    4.237160   -4.933593
     66          6           0        0.353553    3.544474   -6.106357
     67          6           0        0.353553    1.419694   -4.933593
     68          6           0        0.353553    2.112380   -6.106357
     69          1           0        0.353553    5.322189   -4.933260
     70          1           0        0.353553    4.073722   -7.052528
     71          1           0        0.353553    1.583132   -7.052528
     72          1           0        0.353553    0.334665   -4.933260
 ---------------------------------------------------------------------
 Rotational constants (GHZ):           0.0956577           0.0563744           0.0374800
 Leave Link  202 at Wed Sep 27 16:37:49 2023, MaxMem=  3221225472 cpu:               0.7 elap:               0.0
 (Enter /home/center/opt/aarch64/apps/gaussian16/c01/g16/l122.exe)
 Counterpoise: doing full-system calculation.
 Leave Link  122 at Wed Sep 27 16:37:51 2023, MaxMem=  3221225472 cpu:               0.2 elap:               0.0
 (Enter /home/center/opt/aarch64/apps/gaussian16/c01/g16/l301.exe)
 Standard basis: 6-311G(d,p) (5D, 7F)
 Ernie: Thresh=  0.10000D-02 Tol=  0.10000D-05 Strict=F.
 There are   528 symmetry adapted cartesian basis functions of A'  symmetry.
 There are   476 symmetry adapted cartesian basis functions of A"  symmetry.
 There are   504 symmetry adapted basis functions of A'  symmetry.
 There are   456 symmetry adapted basis functions of A"  symmetry.
   960 basis functions,  1632 primitive gaussians,  1004 cartesian basis functions
   146 alpha electrons      146 beta electrons
       nuclear repulsion energy      4549.2693934779 Hartrees.
 IExCor=  402 DFT=T Ex+Corr=B3LYP ExCW=0 ScaHFX=  0.200000
 ScaDFX=  0.800000  0.720000  1.000000  0.810000 ScalE2=  1.000000  1.000000
 IRadAn=      5 IRanWt=     -1 IRanGd=            0 ICorTp=0 IEmpDi=131
 NAtoms=   72 NActive=   72 NUniq=   40 SFac= 3.24D+00 NAtFMM=   60 NAOKFM=T Big=F
 Integral buffers will be    131072 words long.
 Raffenetti 2 integral format.
 Two-electron integral symmetry is turned on.
 R6Disp:  Grimme-D3 Dispersion energy=       -0.0743483086 Hartrees.
 Nuclear repulsion after empirical dispersion term =     4549.1950451693 Hartrees.
 Leave Link  301 at Wed Sep 27 16:37:54 2023, MaxMem=  3221225472 cpu:               2.0 elap:               0.1
 (Enter /home/center/opt/aarch64/apps/gaussian16/c01/g16/l302.exe)
 NPDir=0 NMtPBC=     1 NCelOv=     1 NCel=       1 NClECP=     1 NCelD=      1
         NCelK=      1 NCelE2=     1 NClLst=     1 CellRange=     0.0.
 One-electron integrals computed using PRISM.
 One-electron integral symmetry used in STVInt
 NBasis=   960 RedAO= T EigKep=  3.88D-05  NBF=   504   456
 NBsUse=   960 1.00D-06 EigRej= -1.00D+00 NBFU=   504   456
 Precomputing XC quadrature grid using
 IXCGrd= 4 IRadAn=           5 IRanWt=          -1 IRanGd=           0 AccXCQ= 0.00D+00.
 Generated NRdTot=       0 NPtTot=           0 NUsed=           0 NTot=          32
 NSgBfM=   989   989   989   989   989 MxSgAt=    72 MxSgA2=    72.
 Leave Link  302 at Wed Sep 27 16:37:58 2023, MaxMem=  3221225472 cpu:              63.9 elap:               1.9
 (Enter /home/center/opt/aarch64/apps/gaussian16/c01/g16/l303.exe)
 DipDrv:  MaxL=1.
 Leave Link  303 at Wed Sep 27 16:38:01 2023, MaxMem=  3221225472 cpu:              13.7 elap:               0.4
 (Enter /home/center/opt/aarch64/apps/gaussian16/c01/g16/l401.exe)
 ExpMin= 1.03D-01 ExpMax= 4.56D+03 ExpMxC= 6.82D+02 IAcc=3 IRadAn=         5 AccDes= 0.00D+00
 Harris functional with IExCor=  402 and IRadAn=       5 diagonalized for initial guess.
 HarFok:  IExCor=  402 AccDes= 0.00D+00 IRadAn=         5 IDoV= 1 UseB2=F ITyADJ=14
 ICtDFT=  3500011 ScaDFX=  1.000000  1.000000  1.000000  1.000000
 FoFCou: FMM=F IPFlag=           0 FMFlag=      100000 FMFlg1=        2000
         NFxFlg=           0 DoJE=T BraDBF=F KetDBF=T FulRan=T
         wScrn=  0.000000 ICntrl=       500 IOpCl=  0 I1Cent=   200000004 NGrid=           0
         NMat0=    1 NMatS0=      1 NMatT0=    0 NMatD0=    1 NMtDS0=    0 NMtDT0=    0
 Petite list used in FoFCou.
 Harris En= -1694.13760459326    
 JPrj=0 DoOrth=F DoCkMO=F.
 Initial guess orbital symmetries:
       Occupied  (A") (A') (A") (A') (A') (A") (A') (A") (A") (A')
                 (A") (A') (A") (A') (A") (A') (A") (A') (A') (A")
                 (A") (A') (A") (A') (A') (A') (A') (A') (A") (A')
                 (A") (A') (A") (A') (A") (A') (A") (A') (A") (A')
                 (A') (A") (A') (A") (A') (A') (A") (A") (A') (A')
                 (A") (A") (A') (A') (A') (A') (A") (A") (A') (A')
                 (A") (A") (A") (A") (A') (A') (A') (A') (A") (A")
                 (A") (A") (A') (A') (A") (A") (A') (A') (A') (A')
                 (A') (A') (A") (A") (A") (A") (A") (A") (A') (A')
                 (A') (A') (A") (A") (A') (A') (A') (A') (A") (A")
                 (A') (A') (A") (A") (A") (A") (A') (A') (A') (A')
                 (A") (A") (A') (A') (A") (A") (A') (A') (A") (A")
                 (A") (A") (A') (A') (A') (A') (A") (A") (A') (A')
                 (A") (A") (A') (A') (A") (A") (A') (A') (A') (A')
                 (A") (A") (A") (A") (A') (A')
       Virtual   (A') (A') (A") (A") (A") (A") (A') (A') (A') (A')
                 (A") (A") (A') (A') (A") (A") (A') (A") (A') (A')
                 (A') (A') (A") (A') (A') (A") (A") (A') (A") (A")
                 (A') (A') (A") (A') (A") (A') (A") (A") (A") (A')
                 (A") (A') (A') (A') (A") (A') (A") (A') (A') (A')
                 (A') (A') (A") (A") (A') (A') (A") (A') (A") (A')
                 (A") (A") (A") (A") (A') (A') (A") (A') (A") (A")
                 (A') (A") (A') (A') (A") (A') (A") (A") (A') (A")
                 (A') (A') (A') (A') (A") (A') (A') (A") (A") (A')
                 (A") (A') (A") (A") (A') (A') (A") (A") (A') (A")
                 (A") (A') (A') (A") (A") (A') (A") (A') (A') (A')
                 (A') (A') (A') (A") (A') (A") (A") (A') (A') (A")
                 (A') (A") (A") (A') (A') (A") (A') (A") (A") (A")
                 (A') (A") (A') (A") (A") (A") (A') (A') (A") (A')
                 (A") (A') (A') (A') (A') (A") (A') (A') (A') (A')
                 (A") (A') (A") (A") (A') (A") (A") (A') (A') (A')
                 (A") (A") (A") (A') (A") (A') (A") (A') (A") (A')
                 (A") (A') (A") (A') (A') (A") (A') (A") (A') (A")
                 (A') (A") (A") (A') (A') (A') (A") (A') (A') (A')
                 (A") (A") (A') (A") (A') (A") (A') (A') (A") (A")
                 (A") (A') (A') (A') (A") (A") (A') (A') (A") (A')
                 (A") (A') (A") (A') (A") (A') (A") (A') (A") (A")
                 (A') (A") (A") (A') (A") (A') (A") (A') (A') (A")
                 (A') (A') (A') (A') (A") (A") (A') (A") (A") (A')
                 (A") (A") (A') (A') (A') (A') (A") (A") (A') (A")
                 (A') (A") (A") (A') (A") (A') (A') (A") (A") (A')
                 (A') (A') (A') (A") (A") (A") (A") (A') (A') (A")
                 (A") (A') (A") (A") (A') (A') (A") (A') (A") (A')
                 (A") (A") (A') (A') (A') (A') (A') (A") (A") (A")
                 (A') (A') (A") (A') (A") (A') (A") (A") (A") (A')
                 (A") (A") (A') (A') (A') (A") (A') (A') (A") (A')
                 (A") (A") (A') (A") (A") (A") (A') (A') (A') (A')
                 (A") (A') (A") (A') (A') (A') (A") (A") (A') (A")
                 (A") (A") (A') (A") (A') (A') (A") (A") (A') (A')
                 (A') (A") (A') (A") (A") (A') (A") (A") (A') (A')
                 (A') (A') (A") (A') (A") (A') (A') (A") (A") (A')
                 (A') (A') (A') (A') (A") (A") (A") (A") (A") (A")
                 (A") (A") (A') (A') (A") (A") (A') (A') (A') (A')
                 (A") (A") (A') (A') (A') (A') (A') (A") (A') (A")
                 (A") (A') (A') (A') (A") (A') (A") (A") (A") (A')
                 (A") (A') (A") (A') (A") (A') (A') (A") (A") (A')
                 (A") (A') (A') (A') (A') (A") (A") (A') (A") (A')
                 (A') (A') (A') (A") (A") (A') (A") (A') (A") (A')
                 (A") (A") (A") (A') (A") (A') (A") (A') (A") (A")
                 (A") (A') (A") (A') (A') (A") (A') (A') (A") (A")
                 (A') (A') (A') (A') (A") (A') (A") (A') (A") (A")
                 (A") (A") (A') (A') (A') (A") (A') (A") (A") (A")
                 (A') (A") (A') (A') (A") (A") (A') (A") (A') (A')
                 (A") (A') (A') (A') (A") (A') (A") (A") (A") (A')
                 (A") (A') (A") (A") (A") (A") (A") (A') (A") (A')
                 (A') (A") (A') (A') (A") (A') (A') (A') (A') (A")
                 (A") (A') (A') (A') (A") (A") (A") (A") (A') (A')
                 (A") (A') (A") (A') (A") (A") (A') (A') (A") (A')
                 (A") (A') (A') (A') (A") (A") (A') (A") (A") (A')
                 (A") (A") (A') (A') (A') (A') (A") (A") (A") (A")
                 (A") (A') (A') (A") (A') (A") (A") (A') (A') (A')
                 (A') (A") (A') (A") (A") (A') (A") (A') (A') (A")
                 (A") (A') (A") (A") (A') (A') (A") (A') (A') (A")
                 (A') (A') (A") (A') (A') (A") (A') (A") (A') (A")
                 (A') (A') (A") (A') (A') (A') (A") (A") (A') (A')
                 (A") (A") (A") (A') (A") (A') (A") (A') (A") (A')
                 (A") (A") (A') (A') (A') (A") (A') (A") (A') (A')
                 (A") (A") (A") (A') (A") (A') (A') (A") (A") (A')
                 (A") (A') (A') (A') (A') (A") (A') (A') (A") (A')
                 (A") (A') (A") (A") (A") (A") (A') (A") (A") (A')
                 (A") (A') (A') (A') (A') (A') (A') (A") (A") (A')
                 (A') (A') (A") (A") (A") (A") (A') (A') (A') (A')
                 (A") (A") (A") (A') (A') (A") (A") (A") (A') (A')
                 (A") (A') (A') (A") (A') (A") (A') (A") (A") (A")
                 (A') (A') (A') (A") (A') (A') (A") (A") (A") (A')
                 (A') (A') (A") (A") (A') (A") (A') (A") (A') (A")
                 (A") (A') (A") (A") (A') (A') (A') (A') (A") (A")
                 (A') (A') (A") (A") (A') (A') (A") (A') (A') (A")
                 (A') (A") (A") (A') (A") (A') (A") (A') (A') (A")
                 (A') (A") (A') (A') (A") (A") (A') (A') (A') (A')
                 (A") (A") (A') (A') (A") (A") (A') (A') (A") (A")
                 (A") (A") (A') (A') (A") (A") (A') (A") (A') (A")
                 (A') (A') (A") (A") (A') (A') (A') (A') (A") (A")
                 (A") (A") (A') (A') (A") (A") (A') (A') (A') (A')
                 (A") (A") (A") (A") (A') (A') (A') (A') (A") (A")
                 (A') (A') (A") (A") (A') (A') (A") (A") (A') (A')
                 (A') (A") (A') (A")
 The electronic state of the initial guess is 1-A'.
 Leave Link  401 at Wed Sep 27 16:38:05 2023, MaxMem=  3221225472 cpu:             103.1 elap:               2.6
 (Enter /home/center/opt/aarch64/apps/gaussian16/c01/g16/l502.exe)
 Integral symmetry usage will be decided dynamically.
 Closed shell SCF:
 Using DIIS extrapolation, IDIIS=  1040.
 NGot=  3221225472 LenX=  3219153746 LenY=  3218144726
 Requested convergence on RMS density matrix=1.00D-08 within 128 cycles.
 Requested convergence on MAX density matrix=1.00D-06.
 Requested convergence on             energy=1.00D-06.
 No special actions if energy rises.
 Fock matrices will be formed incrementally for  20 cycles.
 Integral accuracy reduced to 1.0D-05 until final iterations.

 Cycle   1  Pass 0  IDiag  1:
 FoFJK:  IHMeth= 1 ICntrl=       0 DoSepK=F KAlg= 0 I1Cent=           0 FoldK=F
 IRaf= 540000000 NMat=       1 IRICut=       1 DoRegI=T DoRafI=F ISym2E= 1 IDoP0=0 IntGTp=1.
 FoFCou: FMM=F IPFlag=           0 FMFlag=      100000 FMFlg1=        2000
         NFxFlg=           0 DoJE=F BraDBF=F KetDBF=F FulRan=T
         wScrn=  0.000000 ICntrl=         0 IOpCl=  0 I1Cent=           0 NGrid=           0
         NMat0=    1 NMatS0=      1 NMatT0=    0 NMatD0=    1 NMtDS0=    0 NMtDT0=    0
 Petite list used in FoFCou.
 E= -1693.16374969353    
 DIIS: error= 4.61D-02 at cycle   1 NSaved=   1.
 NSaved= 1 IEnMin= 1 EnMin= -1693.16374969353     IErMin= 1 ErrMin= 4.61D-02
 ErrMax= 4.61D-02  0.00D+00 EMaxC= 1.00D-01 BMatC= 9.02D-01 BMatP= 9.02D-01
 IDIUse=3 WtCom= 5.39D-01 WtEn= 4.61D-01
 Coeff-Com:  0.100D+01
 Coeff-En:   0.100D+01
 Coeff:      0.100D+01
 Gap=     0.069 Goal=   None    Shift=    0.000
 GapD=    0.069 DampG=0.500 DampE=0.500 DampFc=0.2500 IDamp=-1.
 Damping current iteration by 2.50D-01
 RMSDP=1.71D-03 MaxDP=8.40D-02              OVMax= 1.57D-01

 Cycle   2  Pass 0  IDiag  1:
 RMSU=  4.14D-04    CP:  9.82D-01
 E= -1693.47477697285     Delta-E=       -0.311027279318 Rises=F Damp=T
 DIIS: error= 2.67D-02 at cycle   2 NSaved=   2.
 NSaved= 2 IEnMin= 2 EnMin= -1693.47477697285     IErMin= 2 ErrMin= 2.67D-02
 ErrMax= 2.67D-02  0.00D+00 EMaxC= 1.00D-01 BMatC= 2.99D-01 BMatP= 9.02D-01
 IDIUse=3 WtCom= 7.33D-01 WtEn= 2.67D-01
 Coeff-Com: -0.121D+01 0.221D+01
 Coeff-En:   0.000D+00 0.100D+01
 Coeff:     -0.885D+00 0.188D+01
 Gap=     0.067 Goal=   None    Shift=    0.000
 RMSDP=6.92D-04 MaxDP=3.34D-02 DE=-3.11D-01 OVMax= 8.34D-02

 Cycle   3  Pass 0  IDiag  1:
 RMSU=  4.39D-04    CP:  9.56D-01  2.24D+00
 E= -1694.04395100929     Delta-E=       -0.569174036441 Rises=F Damp=F
 DIIS: error= 4.57D-03 at cycle   3 NSaved=   3.
 NSaved= 3 IEnMin= 3 EnMin= -1694.04395100929     IErMin= 3 ErrMin= 4.57D-03
 ErrMax= 4.57D-03  0.00D+00 EMaxC= 1.00D-01 BMatC= 1.12D-02 BMatP= 2.99D-01
 IDIUse=3 WtCom= 9.54D-01 WtEn= 4.57D-02
 Coeff-Com: -0.230D+00 0.484D+00 0.746D+00
 Coeff-En:   0.000D+00 0.000D+00 0.100D+01
 Coeff:     -0.219D+00 0.462D+00 0.757D+00
 Gap=     0.070 Goal=   None    Shift=    0.000
 RMSDP=2.26D-04 MaxDP=1.28D-02 DE=-5.69D-01 OVMax= 9.01D-02

 Cycle   4  Pass 0  IDiag  1:
 RMSU=  1.98D-04    CP:  9.57D-01  2.12D+00  7.74D-01
 E= -1694.04008914281     Delta-E=        0.003861866483 Rises=F Damp=F
 DIIS: error= 7.04D-03 at cycle   4 NSaved=   4.
 NSaved= 4 IEnMin= 3 EnMin= -1694.04395100929     IErMin= 3 ErrMin= 4.57D-03
 ErrMax= 7.04D-03  0.00D+00 EMaxC= 1.00D-01 BMatC= 1.29D-02 BMatP= 1.12D-02
 IDIUse=3 WtCom= 1.06D-01 WtEn= 8.94D-01
 Coeff-Com: -0.296D-01 0.953D-01 0.528D+00 0.407D+00
 Coeff-En:   0.000D+00 0.000D+00 0.560D+00 0.440D+00
 Coeff:     -0.315D-02 0.101D-01 0.557D+00 0.436D+00
 Gap=     0.067 Goal=   None    Shift=    0.000
 RMSDP=1.41D-04 MaxDP=9.06D-03 DE= 3.86D-03 OVMax= 7.74D-02

 Cycle   5  Pass 0  IDiag  1:
 RMSU=  7.75D-05    CP:  9.57D-01  2.11D+00  8.40D-01  4.25D-01
 E= -1694.05436718055     Delta-E=       -0.014278037744 Rises=F Damp=F
 DIIS: error= 2.09D-03 at cycle   5 NSaved=   5.
 NSaved= 5 IEnMin= 5 EnMin= -1694.05436718055     IErMin= 5 ErrMin= 2.09D-03
 ErrMax= 2.09D-03  0.00D+00 EMaxC= 1.00D-01 BMatC= 1.10D-03 BMatP= 1.12D-02
 IDIUse=3 WtCom= 9.79D-01 WtEn= 2.09D-02
 Coeff-Com: -0.164D-01 0.344D-01 0.240D+00 0.250D+00 0.492D+00
 Coeff-En:   0.000D+00 0.000D+00 0.000D+00 0.496D-01 0.950D+00
 Coeff:     -0.161D-01 0.337D-01 0.235D+00 0.246D+00 0.502D+00
 Gap=     0.068 Goal=   None    Shift=    0.000
 RMSDP=4.72D-05 MaxDP=3.01D-03 DE=-1.43D-02 OVMax= 2.96D-02

 Cycle   6  Pass 0  IDiag  1:
 RMSU=  2.41D-05    CP:  9.57D-01  2.14D+00  8.46D-01  5.24D-01  5.67D-01
 E= -1694.05538448616     Delta-E=       -0.001017305613 Rises=F Damp=F
 DIIS: error= 1.07D-03 at cycle   6 NSaved=   6.
 NSaved= 6 IEnMin= 6 EnMin= -1694.05538448616     IErMin= 6 ErrMin= 1.07D-03
 ErrMax= 1.07D-03  0.00D+00 EMaxC= 1.00D-01 BMatC= 2.40D-04 BMatP= 1.10D-03
 IDIUse=3 WtCom= 9.89D-01 WtEn= 1.07D-02
 Coeff-Com: -0.715D-02 0.105D-01 0.991D-01 0.123D+00 0.364D+00 0.410D+00
 Coeff-En:   0.000D+00 0.000D+00 0.000D+00 0.000D+00 0.184D+00 0.816D+00
 Coeff:     -0.707D-02 0.104D-01 0.980D-01 0.122D+00 0.362D+00 0.415D+00
 Gap=     0.068 Goal=   None    Shift=    0.000
 RMSDP=2.00D-05 MaxDP=1.47D-03 DE=-1.02D-03 OVMax= 1.23D-02

 Cycle   7  Pass 0  IDiag  1:
 RMSU=  7.98D-06    CP:  9.57D-01  2.14D+00  8.48D-01  5.04D-01  6.33D-01
                    CP:  2.91D-01
 E= -1694.05565538859     Delta-E=       -0.000270902424 Rises=F Damp=F
 DIIS: error= 2.98D-04 at cycle   7 NSaved=   7.
 NSaved= 7 IEnMin= 7 EnMin= -1694.05565538859     IErMin= 7 ErrMin= 2.98D-04
 ErrMax= 2.98D-04  0.00D+00 EMaxC= 1.00D-01 BMatC= 1.98D-05 BMatP= 2.40D-04
 IDIUse=3 WtCom= 9.97D-01 WtEn= 2.98D-03
 Coeff-Com: -0.303D-02 0.375D-02 0.526D-01 0.671D-01 0.215D+00 0.288D+00
 Coeff-Com:  0.377D+00
 Coeff-En:   0.000D+00 0.000D+00 0.000D+00 0.000D+00 0.000D+00 0.379D-01
 Coeff-En:   0.962D+00
 Coeff:     -0.302D-02 0.373D-02 0.525D-01 0.669D-01 0.214D+00 0.287D+00
 Coeff:      0.379D+00
 Gap=     0.068 Goal=   None    Shift=    0.000
 RMSDP=5.41D-06 MaxDP=3.20D-04 DE=-2.71D-04 OVMax= 2.55D-03

 Initial convergence to 1.0D-05 achieved.  Increase integral accuracy.
 Cycle   8  Pass 1  IDiag  1:
 E= -1694.05535191268     Delta-E=        0.000303475911 Rises=F Damp=F
 DIIS: error= 5.55D-04 at cycle   1 NSaved=   1.
 NSaved= 1 IEnMin= 1 EnMin= -1694.05535191268     IErMin= 1 ErrMin= 5.55D-04
 ErrMax= 5.55D-04  0.00D+00 EMaxC= 1.00D-01 BMatC= 4.13D-05 BMatP= 4.13D-05
 IDIUse=3 WtCom= 9.94D-01 WtEn= 5.55D-03
 Coeff-Com:  0.100D+01
 Coeff-En:   0.100D+01
 Coeff:      0.100D+01
 Gap=     0.068 Goal=   None    Shift=    0.000
 RMSDP=5.41D-06 MaxDP=3.20D-04 DE= 3.03D-04 OVMax= 1.19D-03

 Cycle   9  Pass 1  IDiag  1:
 RMSU=  3.07D-04    CP:  9.99D-01
 E= -1694.05539113576     Delta-E=       -0.000039223080 Rises=F Damp=F
 DIIS: error= 9.31D-05 at cycle   2 NSaved=   2.
 NSaved= 2 IEnMin= 2 EnMin= -1694.05539113576     IErMin= 2 ErrMin= 9.31D-05
 ErrMax= 9.31D-05  0.00D+00 EMaxC= 1.00D-01 BMatC= 2.28D-06 BMatP= 4.13D-05
 IDIUse=1 WtCom= 1.00D+00 WtEn= 0.00D+00
 Coeff-Com:  0.664D-01 0.934D+00
 Coeff:      0.664D-01 0.934D+00
 Gap=     0.068 Goal=   None    Shift=    0.000
 RMSDP=6.06D-06 MaxDP=3.91D-04 DE=-3.92D-05 OVMax= 3.17D-03

 Cycle  10  Pass 1  IDiag  1:
 RMSU=  5.10D-06    CP:  9.99D-01  1.01D+00
 E= -1694.05538027052     Delta-E=        0.000010865233 Rises=F Damp=F
 DIIS: error= 2.52D-04 at cycle   3 NSaved=   3.
 NSaved= 3 IEnMin= 2 EnMin= -1694.05539113576     IErMin= 2 ErrMin= 9.31D-05
 ErrMax= 2.52D-04  0.00D+00 EMaxC= 1.00D-01 BMatC= 1.10D-05 BMatP= 2.28D-06
 IDIUse=3 WtCom= 3.87D-01 WtEn= 6.13D-01
 Coeff-Com: -0.232D-02 0.691D+00 0.311D+00
 Coeff-En:   0.000D+00 0.775D+00 0.225D+00
 Coeff:     -0.899D-03 0.742D+00 0.258D+00
 Gap=     0.068 Goal=   None    Shift=    0.000
 RMSDP=3.18D-06 MaxDP=2.46D-04 DE= 1.09D-05 OVMax= 2.19D-03

 Cycle  11  Pass 1  IDiag  1:
 RMSU=  9.09D-07    CP:  9.99D-01  1.01D+00  4.04D-01
 E= -1694.05539335575     Delta-E=       -0.000013085227 Rises=F Damp=F
 DIIS: error= 3.55D-05 at cycle   4 NSaved=   4.
 NSaved= 4 IEnMin= 4 EnMin= -1694.05539335575     IErMin= 4 ErrMin= 3.55D-05
 ErrMax= 3.55D-05  0.00D+00 EMaxC= 1.00D-01 BMatC= 3.81D-07 BMatP= 2.28D-06
 IDIUse=1 WtCom= 1.00D+00 WtEn= 0.00D+00
 Coeff-Com: -0.385D-02 0.451D+00 0.144D+00 0.410D+00
 Coeff:     -0.385D-02 0.451D+00 0.144D+00 0.410D+00
 Gap=     0.068 Goal=   None    Shift=    0.000
 RMSDP=6.05D-07 MaxDP=3.00D-05 DE=-1.31D-05 OVMax= 1.49D-04

 Cycle  12  Pass 1  IDiag  1:
 RMSU=  3.57D-07    CP:  9.99D-01  1.01D+00  3.19D-01  7.55D-01
 E= -1694.05539374338     Delta-E=       -0.000000387634 Rises=F Damp=F
 DIIS: error= 4.99D-06 at cycle   5 NSaved=   5.
 NSaved= 5 IEnMin= 5 EnMin= -1694.05539374338     IErMin= 5 ErrMin= 4.99D-06
 ErrMax= 4.99D-06  0.00D+00 EMaxC= 1.00D-01 BMatC= 3.77D-09 BMatP= 3.81D-07
 IDIUse=1 WtCom= 1.00D+00 WtEn= 0.00D+00
 Coeff-Com: -0.228D-02 0.258D+00 0.810D-01 0.247D+00 0.416D+00
 Coeff:     -0.228D-02 0.258D+00 0.810D-01 0.247D+00 0.416D+00
 Gap=     0.068 Goal=   None    Shift=    0.000
 RMSDP=9.14D-08 MaxDP=3.50D-06 DE=-3.88D-07 OVMax= 3.21D-05

 Cycle  13  Pass 1  IDiag  1:
 RMSU=  8.32D-08    CP:  9.99D-01  1.01D+00  3.21D-01  7.68D-01  9.08D-01
 E= -1694.05539374776     Delta-E=       -0.000000004376 Rises=F Damp=F
 DIIS: error= 1.64D-06 at cycle   6 NSaved=   6.
 NSaved= 6 IEnMin= 6 EnMin= -1694.05539374776     IErMin= 6 ErrMin= 1.64D-06
 ErrMax= 1.64D-06  0.00D+00 EMaxC= 1.00D-01 BMatC= 5.79D-10 BMatP= 3.77D-09
 IDIUse=1 WtCom= 1.00D+00 WtEn= 0.00D+00
 Coeff-Com: -0.849D-03 0.928D-01 0.291D-01 0.927D-01 0.280D+00 0.507D+00
 Coeff:     -0.849D-03 0.928D-01 0.291D-01 0.927D-01 0.280D+00 0.507D+00
 Gap=     0.068 Goal=   None    Shift=    0.000
 RMSDP=2.75D-08 MaxDP=1.66D-06 DE=-4.38D-09 OVMax= 1.41D-05

 Cycle  14  Pass 1  IDiag  1:
 RMSU=  1.86D-08    CP:  9.99D-01  1.01D+00  3.23D-01  7.63D-01  9.37D-01
                    CP:  8.20D-01
 E= -1694.05539374839     Delta-E=       -0.000000000633 Rises=F Damp=F
 DIIS: error= 4.56D-07 at cycle   7 NSaved=   7.
 NSaved= 7 IEnMin= 7 EnMin= -1694.05539374839     IErMin= 7 ErrMin= 4.56D-07
 ErrMax= 4.56D-07  0.00D+00 EMaxC= 1.00D-01 BMatC= 2.97D-11 BMatP= 5.79D-10
 IDIUse=1 WtCom= 1.00D+00 WtEn= 0.00D+00
 Coeff-Com: -0.286D-03 0.307D-01 0.927D-02 0.323D-01 0.116D+00 0.259D+00
 Coeff-Com:  0.553D+00
 Coeff:     -0.286D-03 0.307D-01 0.927D-02 0.323D-01 0.116D+00 0.259D+00
 Coeff:      0.553D+00
 Gap=     0.068 Goal=   None    Shift=    0.000
 RMSDP=1.11D-08 MaxDP=9.09D-07 DE=-6.33D-10 OVMax= 7.84D-06

 Cycle  15  Pass 1  IDiag  1:
 RMSU=  8.86D-09    CP:  9.99D-01  1.01D+00  3.22D-01  7.65D-01  9.39D-01
                    CP:  8.38D-01  6.94D-01
 E= -1694.05539374840     Delta-E=       -0.000000000011 Rises=F Damp=F
 DIIS: error= 3.88D-07 at cycle   8 NSaved=   8.
 NSaved= 8 IEnMin= 8 EnMin= -1694.05539374840     IErMin= 8 ErrMin= 3.88D-07
 ErrMax= 3.88D-07  0.00D+00 EMaxC= 1.00D-01 BMatC= 2.28D-11 BMatP= 2.97D-11
 IDIUse=1 WtCom= 1.00D+00 WtEn= 0.00D+00
 Coeff-Com:  0.856D-05-0.148D-02-0.919D-03 0.463D-03 0.174D-01 0.755D-01
 Coeff-Com:  0.472D+00 0.437D+00
 Coeff:      0.856D-05-0.148D-02-0.919D-03 0.463D-03 0.174D-01 0.755D-01
 Coeff:      0.472D+00 0.437D+00
 Gap=     0.068 Goal=   None    Shift=    0.000
 RMSDP=5.90D-09 MaxDP=4.46D-07 DE=-1.09D-11 OVMax= 4.26D-06

 SCF Done:  E(RB3LYP) =  -1694.05539375     A.U. after   15 cycles
            NFock= 15  Conv=0.59D-08     -V/T= 2.0044
 KE= 1.686674510552D+03 PE=-1.302882509828D+04 EE= 5.098900148807D+03
 Leave Link  502 at Wed Sep 27 16:39:50 2023, MaxMem=  3221225472 cpu:            3610.3 elap:             101.8
 (Enter /home/center/opt/aarch64/apps/gaussian16/c01/g16/l601.exe)
 Copying SCF densities to generalized density rwf, IOpCl= 0 IROHF=0.

 **********************************************************************

            Population analysis using the SCF Density.

 **********************************************************************

 Orbital symmetries:
       Occupied  (A") (A') (A') (A") (A") (A') (A") (A') (A') (A')
                 (A") (A') (A") (A') (A") (A') (A") (A') (A") (A')
                 (A") (A') (A") (A') (A") (A') (A') (A") (A") (A')
                 (A") (A') (A') (A") (A') (A') (A") (A') (A") (A')
                 (A") (A') (A") (A') (A') (A') (A") (A") (A') (A')
                 (A") (A") (A') (A') (A') (A") (A') (A") (A') (A')
                 (A") (A") (A") (A") (A') (A') (A') (A') (A") (A")
                 (A") (A") (A') (A") (A') (A') (A") (A') (A') (A')
                 (A') (A") (A") (A') (A") (A") (A') (A") (A') (A")
                 (A') (A') (A') (A") (A") (A') (A") (A") (A') (A')
                 (A') (A") (A') (A') (A') (A') (A") (A") (A') (A")
                 (A') (A') (A") (A") (A") (A") (A") (A") (A') (A')
                 (A') (A') (A') (A') (A") (A") (A') (A") (A") (A")
                 (A') (A") (A') (A') (A") (A') (A") (A') (A') (A')
                 (A") (A") (A") (A") (A') (A')
       Virtual   (A') (A') (A") (A") (A") (A") (A') (A') (A') (A")
                 (A') (A') (A") (A') (A") (A') (A') (A') (A") (A")
                 (A') (A') (A") (A") (A") (A') (A') (A') (A") (A")
                 (A') (A") (A') (A") (A') (A") (A") (A') (A") (A')
                 (A') (A") (A') (A') (A") (A') (A") (A') (A") (A')
                 (A") (A') (A') (A') (A') (A') (A') (A") (A') (A")
                 (A") (A") (A") (A") (A') (A') (A") (A") (A") (A')
                 (A') (A') (A") (A") (A') (A') (A") (A') (A") (A")
                 (A') (A') (A') (A') (A') (A") (A') (A") (A') (A")
                 (A") (A') (A") (A') (A') (A') (A") (A") (A") (A')
                 (A") (A') (A") (A') (A') (A") (A') (A") (A") (A')
                 (A") (A') (A") (A') (A") (A') (A") (A') (A') (A")
                 (A') (A') (A") (A') (A") (A') (A') (A') (A') (A")
                 (A') (A") (A") (A") (A') (A') (A') (A") (A') (A')
                 (A") (A') (A") (A') (A") (A') (A") (A") (A') (A')
                 (A") (A") (A") (A') (A") (A') (A') (A") (A') (A")
                 (A') (A") (A') (A') (A") (A") (A') (A") (A") (A')
                 (A") (A') (A') (A") (A') (A') (A') (A') (A") (A")
                 (A") (A') (A') (A") (A') (A") (A') (A") (A") (A')
                 (A") (A') (A") (A") (A') (A") (A') (A') (A') (A")
                 (A') (A") (A') (A") (A') (A') (A") (A') (A") (A')
                 (A") (A') (A") (A') (A") (A') (A") (A') (A") (A")
                 (A') (A") (A') (A") (A") (A') (A') (A') (A") (A')
                 (A') (A") (A") (A') (A") (A') (A") (A') (A") (A')
                 (A") (A') (A') (A') (A") (A') (A") (A") (A") (A')
                 (A") (A') (A') (A') (A") (A") (A') (A") (A") (A")
                 (A') (A') (A') (A") (A') (A') (A") (A") (A') (A')
                 (A") (A") (A') (A") (A") (A') (A') (A") (A") (A')
                 (A") (A') (A') (A') (A") (A") (A') (A") (A') (A")
                 (A') (A") (A') (A') (A") (A") (A') (A') (A") (A')
                 (A") (A") (A") (A") (A') (A") (A') (A') (A') (A')
                 (A') (A") (A') (A') (A") (A") (A") (A') (A") (A")
                 (A') (A") (A') (A') (A') (A") (A') (A") (A') (A")
                 (A") (A") (A') (A") (A') (A') (A") (A") (A') (A')
                 (A") (A') (A') (A') (A") (A") (A') (A') (A") (A')
                 (A") (A") (A') (A") (A') (A') (A') (A') (A') (A")
                 (A') (A") (A') (A') (A") (A") (A") (A") (A") (A")
                 (A') (A") (A') (A") (A') (A") (A") (A') (A") (A')
                 (A') (A') (A") (A') (A") (A') (A') (A') (A") (A')
                 (A') (A') (A") (A") (A') (A') (A") (A") (A") (A')
                 (A') (A") (A") (A') (A") (A') (A') (A") (A') (A")
                 (A') (A') (A") (A") (A') (A') (A") (A') (A') (A")
                 (A') (A") (A') (A') (A") (A') (A") (A') (A") (A')
                 (A") (A") (A") (A') (A') (A") (A') (A") (A") (A')
                 (A") (A') (A') (A") (A") (A") (A') (A") (A') (A")
                 (A') (A') (A") (A') (A") (A') (A") (A') (A") (A')
                 (A") (A") (A') (A') (A") (A') (A") (A') (A') (A')
                 (A") (A") (A') (A") (A') (A") (A") (A") (A') (A')
                 (A") (A') (A") (A') (A') (A') (A") (A") (A') (A")
                 (A") (A") (A') (A") (A") (A") (A") (A") (A') (A')
                 (A") (A') (A') (A') (A") (A') (A') (A') (A") (A")
                 (A') (A') (A') (A") (A') (A") (A') (A") (A') (A")
                 (A") (A") (A") (A') (A') (A') (A") (A') (A") (A')
                 (A") (A') (A") (A') (A") (A") (A') (A") (A') (A')
                 (A") (A") (A') (A') (A') (A") (A") (A") (A') (A")
                 (A") (A') (A") (A') (A") (A') (A') (A") (A') (A')
                 (A") (A") (A') (A') (A") (A') (A") (A') (A") (A')
                 (A") (A') (A') (A') (A") (A') (A') (A") (A') (A')
                 (A") (A") (A') (A") (A') (A") (A') (A") (A") (A')
                 (A') (A") (A") (A") (A') (A") (A') (A') (A") (A')
                 (A") (A') (A') (A") (A') (A') (A") (A') (A") (A')
                 (A") (A') (A') (A") (A') (A') (A") (A') (A') (A")
                 (A") (A') (A") (A') (A") (A') (A') (A") (A") (A")
                 (A") (A') (A") (A') (A') (A') (A") (A') (A') (A')
                 (A") (A") (A') (A") (A') (A") (A") (A") (A') (A')
                 (A") (A') (A") (A') (A') (A') (A') (A") (A') (A")
                 (A") (A') (A") (A') (A") (A") (A') (A') (A') (A")
                 (A') (A") (A") (A') (A") (A') (A") (A") (A') (A')
                 (A') (A') (A") (A") (A') (A") (A') (A") (A") (A")
                 (A') (A') (A") (A') (A') (A') (A") (A") (A") (A')
                 (A') (A') (A") (A") (A') (A") (A') (A") (A') (A")
                 (A") (A') (A") (A") (A') (A') (A') (A') (A") (A")
                 (A') (A') (A") (A') (A") (A') (A') (A") (A') (A")
                 (A") (A') (A") (A') (A") (A') (A') (A") (A') (A")
                 (A') (A") (A') (A") (A') (A') (A") (A') (A') (A")
                 (A') (A') (A") (A') (A") (A") (A') (A') (A") (A")
                 (A") (A') (A") (A") (A') (A") (A') (A") (A') (A")
                 (A') (A') (A") (A") (A') (A') (A') (A') (A") (A")
                 (A") (A") (A') (A') (A") (A') (A") (A') (A') (A')
                 (A") (A") (A") (A") (A') (A') (A') (A") (A') (A")
                 (A') (A') (A") (A') (A") (A") (A') (A') (A") (A')
                 (A') (A") (A') (A")
 The electronic state is 1-A'.
 Alpha  occ. eigenvalues --  -10.19525 -10.19525 -10.19472 -10.19471 -10.19427
 Alpha  occ. eigenvalues --  -10.19427 -10.19363 -10.19363 -10.18532 -10.18521
 Alpha  occ. eigenvalues --  -10.18479 -10.18479 -10.18475 -10.18475 -10.18406
 Alpha  occ. eigenvalues --  -10.18406 -10.18354 -10.18354 -10.18335 -10.18335
 Alpha  occ. eigenvalues --  -10.18271 -10.18271 -10.18187 -10.18186 -10.18135
 Alpha  occ. eigenvalues --  -10.18135 -10.18105 -10.18104 -10.18031 -10.18030
 Alpha  occ. eigenvalues --  -10.17242 -10.17242 -10.17195 -10.17185 -10.17185
 Alpha  occ. eigenvalues --  -10.17172 -10.17172 -10.17116 -10.17102 -10.17102
 Alpha  occ. eigenvalues --  -10.17080 -10.17080 -10.17007 -10.17007  -0.89929
 Alpha  occ. eigenvalues --   -0.88589  -0.88434  -0.87135  -0.86109  -0.84828
 Alpha  occ. eigenvalues --   -0.82970  -0.81699  -0.80376  -0.79073  -0.79050
 Alpha  occ. eigenvalues --   -0.78852  -0.77808  -0.77565  -0.76522  -0.75251
 Alpha  occ. eigenvalues --   -0.74812  -0.73537  -0.73430  -0.72165  -0.69731
 Alpha  occ. eigenvalues --   -0.68453  -0.67890  -0.66622  -0.63268  -0.62899
 Alpha  occ. eigenvalues --   -0.61997  -0.61656  -0.61634  -0.60479  -0.60316
 Alpha  occ. eigenvalues --   -0.59816  -0.59187  -0.58548  -0.58210  -0.56969
 Alpha  occ. eigenvalues --   -0.53238  -0.53085  -0.52807  -0.51987  -0.51819
 Alpha  occ. eigenvalues --   -0.51576  -0.50153  -0.49039  -0.48896  -0.47815
 Alpha  occ. eigenvalues --   -0.47657  -0.46605  -0.46430  -0.46066  -0.46014
 Alpha  occ. eigenvalues --   -0.45351  -0.44827  -0.44749  -0.44453  -0.43674
 Alpha  occ. eigenvalues --   -0.43224  -0.43060  -0.42450  -0.42313  -0.42082
 Alpha  occ. eigenvalues --   -0.41946  -0.41811  -0.41245  -0.41030  -0.40922
 Alpha  occ. eigenvalues --   -0.40802  -0.40656  -0.40170  -0.39947  -0.39694
 Alpha  occ. eigenvalues --   -0.38871  -0.38698  -0.37456  -0.37330  -0.36847
 Alpha  occ. eigenvalues --   -0.36050  -0.36034  -0.35658  -0.34742  -0.34632
 Alpha  occ. eigenvalues --   -0.34304  -0.33569  -0.33477  -0.33366  -0.33023
 Alpha  occ. eigenvalues --   -0.32468  -0.32239  -0.31956  -0.30860  -0.30214
 Alpha  occ. eigenvalues --   -0.28975  -0.28933  -0.27722  -0.27179  -0.25899
 Alpha  occ. eigenvalues --   -0.24973  -0.23667  -0.23139  -0.21858  -0.18425
 Alpha  occ. eigenvalues --   -0.17113
 Alpha virt. eigenvalues --   -0.10334  -0.09024  -0.05026  -0.03752  -0.03336
 Alpha virt. eigenvalues --   -0.02046  -0.00712   0.00565   0.01518   0.01773
 Alpha virt. eigenvalues --    0.02524   0.02759   0.03080   0.03769   0.03977
 Alpha virt. eigenvalues --    0.03982   0.04579   0.05256   0.05689   0.05893
 Alpha virt. eigenvalues --    0.05915   0.06397   0.07237   0.07552   0.07770
 Alpha virt. eigenvalues --    0.07838   0.08321   0.08882   0.08995   0.09357
 Alpha virt. eigenvalues --    0.09616   0.09684   0.10657   0.10795   0.11176
 Alpha virt. eigenvalues --    0.11476   0.12406   0.12573   0.13459   0.13588
 Alpha virt. eigenvalues --    0.14270   0.14816   0.14819   0.15541   0.17538
 Alpha virt. eigenvalues --    0.17872   0.18385   0.18737   0.18804   0.19019
 Alpha virt. eigenvalues --    0.19486   0.20169   0.22361   0.22456   0.23545
 Alpha virt. eigenvalues --    0.23725   0.23909   0.24447   0.25095   0.25113
 Alpha virt. eigenvalues --    0.25364   0.26197   0.27050   0.27095   0.27331
 Alpha virt. eigenvalues --    0.27734   0.27921   0.28090   0.28622   0.28768
 Alpha virt. eigenvalues --    0.28878   0.29294   0.29522   0.30039   0.30066
 Alpha virt. eigenvalues --    0.30230   0.30669   0.31298   0.31469   0.32044
 Alpha virt. eigenvalues --    0.32073   0.34024   0.34380   0.35068   0.35737
 Alpha virt. eigenvalues --    0.35876   0.35883   0.36363   0.36535   0.36888
 Alpha virt. eigenvalues --    0.37004   0.37525   0.37608   0.37981   0.38083
 Alpha virt. eigenvalues --    0.38542   0.38568   0.38630   0.38966   0.39205
 Alpha virt. eigenvalues --    0.39410   0.39518   0.39590   0.39758   0.40041
 Alpha virt. eigenvalues --    0.40172   0.40576   0.40745   0.41423   0.41610
 Alpha virt. eigenvalues --    0.41623   0.42080   0.42267   0.42364   0.42513
 Alpha virt. eigenvalues --    0.42528   0.42616   0.43109   0.43194   0.43303
 Alpha virt. eigenvalues --    0.43493   0.43916   0.44042   0.44469   0.44805
 Alpha virt. eigenvalues --    0.44994   0.45045   0.45171   0.45481   0.45838
 Alpha virt. eigenvalues --    0.45906   0.46075   0.46242   0.46283   0.46438
 Alpha virt. eigenvalues --    0.46789   0.46955   0.47243   0.47259   0.47511
 Alpha virt. eigenvalues --    0.47810   0.47892   0.48075   0.48495   0.48766
 Alpha virt. eigenvalues --    0.49204   0.49498   0.49726   0.49924   0.50167
 Alpha virt. eigenvalues --    0.50265   0.50420   0.50797   0.50931   0.51157
 Alpha virt. eigenvalues --    0.51651   0.51899   0.52385   0.53107   0.53555
 Alpha virt. eigenvalues --    0.54076   0.54317   0.54530   0.54865   0.54912
 Alpha virt. eigenvalues --    0.55633   0.56482   0.57149   0.57425   0.57522
 Alpha virt. eigenvalues --    0.58460   0.58724   0.59142   0.59207   0.59738
 Alpha virt. eigenvalues --    0.59945   0.60615   0.60713   0.61087   0.61516
 Alpha virt. eigenvalues --    0.61624   0.61727   0.61952   0.62237   0.62469
 Alpha virt. eigenvalues --    0.62574   0.62739   0.63105   0.63407   0.63434
 Alpha virt. eigenvalues --    0.64012   0.64031   0.64735   0.64935   0.65861
 Alpha virt. eigenvalues --    0.66026   0.66177   0.66303   0.66367   0.66455
 Alpha virt. eigenvalues --    0.67192   0.67355   0.68430   0.69949   0.70487
 Alpha virt. eigenvalues --    0.70844   0.70911   0.71550   0.71725   0.72085
 Alpha virt. eigenvalues --    0.72512   0.72600   0.72842   0.73095   0.73676
 Alpha virt. eigenvalues --    0.74091   0.74812   0.75124   0.75416   0.75967
 Alpha virt. eigenvalues --    0.76047   0.76931   0.77355   0.77388   0.77906
 Alpha virt. eigenvalues --    0.78403   0.78849   0.78974   0.79271   0.80422
 Alpha virt. eigenvalues --    0.80578   0.80671   0.81228   0.81422   0.82100
 Alpha virt. eigenvalues --    0.82177   0.82660   0.82817   0.83147   0.83329
 Alpha virt. eigenvalues --    0.83629   0.84062   0.84882   0.85309   0.85377
 Alpha virt. eigenvalues --    0.85837   0.86211   0.87510   0.88133   0.88449
 Alpha virt. eigenvalues --    0.89654   0.90221   0.90585   0.90748   0.90864
 Alpha virt. eigenvalues --    0.91096   0.92049   0.92152   0.93314   0.93783
 Alpha virt. eigenvalues --    0.93881   0.94505   0.95020   0.95425   0.95431
 Alpha virt. eigenvalues --    0.95968   0.96058   0.96528   0.96540   0.96880
 Alpha virt. eigenvalues --    0.98056   0.98584   0.98912   0.99208   0.99276
 Alpha virt. eigenvalues --    0.99638   1.00054   1.01027   1.01841   1.02202
 Alpha virt. eigenvalues --    1.02634   1.02859   1.03357   1.03449   1.04044
 Alpha virt. eigenvalues --    1.04184   1.04899   1.05072   1.05287   1.05695
 Alpha virt. eigenvalues --    1.05759   1.05967   1.06039   1.06143   1.06280
 Alpha virt. eigenvalues --    1.06717   1.07144   1.07393   1.07998   1.08147
 Alpha virt. eigenvalues --    1.08717   1.09102   1.09411   1.09851   1.10219
 Alpha virt. eigenvalues --    1.10779   1.11210   1.11673   1.12446   1.12799
 Alpha virt. eigenvalues --    1.12864   1.12912   1.13338   1.13934   1.13989
 Alpha virt. eigenvalues --    1.14895   1.15243   1.15346   1.16057   1.16419
 Alpha virt. eigenvalues --    1.17232   1.17951   1.18213   1.19064   1.20368
 Alpha virt. eigenvalues --    1.21090   1.21889   1.22594   1.23126   1.23152
 Alpha virt. eigenvalues --    1.24091   1.25349   1.27549   1.27867   1.30179
 Alpha virt. eigenvalues --    1.30642   1.30817   1.31961   1.32277   1.33173
 Alpha virt. eigenvalues --    1.34514   1.35351   1.36018   1.36377   1.37242
 Alpha virt. eigenvalues --    1.38629   1.39074   1.39538   1.39882   1.40239
 Alpha virt. eigenvalues --    1.40323   1.40759   1.40789   1.41503   1.42252
 Alpha virt. eigenvalues --    1.42675   1.43134   1.43815   1.44176   1.44693
 Alpha virt. eigenvalues --    1.45009   1.45710   1.46350   1.47018   1.47055
 Alpha virt. eigenvalues --    1.47419   1.47827   1.48153   1.48811   1.48989
 Alpha virt. eigenvalues --    1.48992   1.49541   1.49920   1.50068   1.50568
 Alpha virt. eigenvalues --    1.50744   1.51233   1.51622   1.52485   1.52890
 Alpha virt. eigenvalues --    1.53005   1.53661   1.53666   1.54018   1.54055
 Alpha virt. eigenvalues --    1.54521   1.54619   1.54994   1.55047   1.55109
 Alpha virt. eigenvalues --    1.55606   1.56920   1.57756   1.57852   1.58149
 Alpha virt. eigenvalues --    1.58814   1.59032   1.59504   1.60302   1.60718
 Alpha virt. eigenvalues --    1.61580   1.61680   1.62395   1.62837   1.63857
 Alpha virt. eigenvalues --    1.64566   1.65060   1.66148   1.66615   1.67508
 Alpha virt. eigenvalues --    1.69105   1.69314   1.69368   1.70122   1.70398
 Alpha virt. eigenvalues --    1.70482   1.71212   1.71564   1.72125   1.72463
 Alpha virt. eigenvalues --    1.72793   1.73379   1.73400   1.73472   1.73749
 Alpha virt. eigenvalues --    1.73753   1.74173   1.74420   1.74809   1.76273
 Alpha virt. eigenvalues --    1.77010   1.77895   1.78308   1.78874   1.79502
 Alpha virt. eigenvalues --    1.79934   1.79992   1.80033   1.81257   1.81781
 Alpha virt. eigenvalues --    1.81789   1.82062   1.82465   1.82506   1.82852
 Alpha virt. eigenvalues --    1.83308   1.83684   1.84092   1.84668   1.85094
 Alpha virt. eigenvalues --    1.85116   1.86448   1.87044   1.87309   1.87438
 Alpha virt. eigenvalues --    1.87508   1.87915   1.88155   1.88340   1.88496
 Alpha virt. eigenvalues --    1.88581   1.88871   1.88917   1.89696   1.90447
 Alpha virt. eigenvalues --    1.90644   1.91422   1.91542   1.92026   1.92148
 Alpha virt. eigenvalues --    1.92354   1.92937   1.92999   1.93414   1.93419
 Alpha virt. eigenvalues --    1.93552   1.93794   1.94170   1.94383   1.95251
 Alpha virt. eigenvalues --    1.95624   1.95656   1.96070   1.96211   1.97076
 Alpha virt. eigenvalues --    1.98050   1.99576   2.00236   2.00419   2.00809
 Alpha virt. eigenvalues --    2.00948   2.00998   2.02153   2.02530   2.03850
 Alpha virt. eigenvalues --    2.04913   2.05331   2.07445   2.07819   2.08656
 Alpha virt. eigenvalues --    2.09168   2.09270   2.09985   2.10611   2.10897
 Alpha virt. eigenvalues --    2.10937   2.11699   2.12943   2.13856   2.14893
 Alpha virt. eigenvalues --    2.15209   2.15760   2.16375   2.16680   2.17254
 Alpha virt. eigenvalues --    2.17906   2.19329   2.20361   2.21291   2.21843
 Alpha virt. eigenvalues --    2.22147   2.22435   2.22955   2.22987   2.23562
 Alpha virt. eigenvalues --    2.24022   2.24596   2.25265   2.26555   2.26581
 Alpha virt. eigenvalues --    2.26723   2.27297   2.27316   2.27672   2.27915
 Alpha virt. eigenvalues --    2.27984   2.28998   2.29171   2.29968   2.31591
 Alpha virt. eigenvalues --    2.33490   2.34686   2.35218   2.36503   2.38743
 Alpha virt. eigenvalues --    2.38848   2.40097   2.40322   2.40376   2.41470
 Alpha virt. eigenvalues --    2.42571   2.42602   2.43778   2.44172   2.45230
 Alpha virt. eigenvalues --    2.45450   2.45929   2.46550   2.46785   2.48278
 Alpha virt. eigenvalues --    2.51210   2.52678   2.52680   2.53105   2.54035
 Alpha virt. eigenvalues --    2.54307   2.54742   2.55042   2.55808   2.56849
 Alpha virt. eigenvalues --    2.57110   2.58281   2.58698   2.59159   2.59311
 Alpha virt. eigenvalues --    2.59572   2.60277   2.60303   2.60524   2.60834
 Alpha virt. eigenvalues --    2.61069   2.61355   2.61724   2.61820   2.62715
 Alpha virt. eigenvalues --    2.62964   2.63210   2.63805   2.64107   2.64554
 Alpha virt. eigenvalues --    2.65079   2.65139   2.65649   2.66163   2.66651
 Alpha virt. eigenvalues --    2.66801   2.67127   2.67503   2.67782   2.67828
 Alpha virt. eigenvalues --    2.67906   2.68614   2.68886   2.69237   2.69344
 Alpha virt. eigenvalues --    2.69461   2.69664   2.69802   2.69870   2.70257
 Alpha virt. eigenvalues --    2.70488   2.70654   2.71334   2.71971   2.72623
 Alpha virt. eigenvalues --    2.73086   2.73360   2.73840   2.74269   2.74650
 Alpha virt. eigenvalues --    2.74896   2.75023   2.76218   2.76322   2.76794
 Alpha virt. eigenvalues --    2.77043   2.77555   2.77653   2.78410   2.78825
 Alpha virt. eigenvalues --    2.79009   2.79456   2.79608   2.80087   2.80790
 Alpha virt. eigenvalues --    2.81733   2.81906   2.82487   2.83181   2.84928
 Alpha virt. eigenvalues --    2.85564   2.86274   2.86307   2.86797   2.86952
 Alpha virt. eigenvalues --    2.87228   2.88522   2.89150   2.90488   2.91637
 Alpha virt. eigenvalues --    2.92014   2.92352   2.92913   2.93221   2.93456
 Alpha virt. eigenvalues --    2.95136   2.95563   2.95567   2.97454   2.97587
 Alpha virt. eigenvalues --    2.98765   2.99423   3.00329   3.01304   3.02681
 Alpha virt. eigenvalues --    3.04200   3.05433   3.06254   3.06953   3.07160
 Alpha virt. eigenvalues --    3.07899   3.08390   3.15630   3.15850   3.16380
 Alpha virt. eigenvalues --    3.16842   3.17056   3.17611   3.19370   3.20059
 Alpha virt. eigenvalues --    3.20708   3.20961   3.23440   3.24463   3.28971
 Alpha virt. eigenvalues --    3.29631   3.30026   3.30538   3.31172   3.32569
 Alpha virt. eigenvalues --    3.34897   3.35327   3.36044   3.36278   3.36521
 Alpha virt. eigenvalues --    3.36824   3.36966   3.37587   3.38888   3.38902
 Alpha virt. eigenvalues --    3.39523   3.40805   3.40910   3.42580   3.44630
 Alpha virt. eigenvalues --    3.44939   3.45816   3.46309   3.48741   3.48894
 Alpha virt. eigenvalues --    3.49741   3.50360   3.50912   3.51285   3.52855
 Alpha virt. eigenvalues --    3.54284   3.57036   3.58298   3.58347   3.59616
 Alpha virt. eigenvalues --    3.61351   3.62370   3.62411   3.63421   3.63602
 Alpha virt. eigenvalues --    3.63816   3.65724   3.66265   3.66317   3.67608
 Alpha virt. eigenvalues --    3.68129   3.68281   3.69888   3.70051   4.00002
 Alpha virt. eigenvalues --    4.00063   4.01386   4.01584   4.01643   4.01724
 Alpha virt. eigenvalues --    4.02703   4.03041   4.15671   4.16234   4.17105
 Alpha virt. eigenvalues --    4.17357   4.17958   4.20047   4.20801   4.21951
 Alpha virt. eigenvalues --    4.22101   4.22337   4.23535   4.24025   4.25393
 Alpha virt. eigenvalues --    4.27645   4.38133   4.39915   4.61736   4.63484
 Alpha virt. eigenvalues --    4.78631   4.79222   4.80004   4.80210   4.80664
 Alpha virt. eigenvalues --    4.81653   4.82024   4.82475   4.83799   4.84189
 Alpha virt. eigenvalues --   23.39479  23.41755  23.54814  23.57142  23.69433
 Alpha virt. eigenvalues --   23.71256  23.77100  23.78358  23.80737  23.81187
 Alpha virt. eigenvalues --   23.81905  23.82687  23.85733  23.87035  23.88672
 Alpha virt. eigenvalues --   23.89478  23.90001  23.90326  23.91801  23.93223
 Alpha virt. eigenvalues --   23.96998  23.98042  23.98435  23.99195  24.08671
 Alpha virt. eigenvalues --   24.09442  24.09871  24.10083  24.10718  24.11315
 Alpha virt. eigenvalues --   24.11714  24.13221  24.13243  24.13824  24.14758
 Alpha virt. eigenvalues --   24.15277  24.15314  24.15431  24.16482  24.16515
 Alpha virt. eigenvalues --   24.19951  24.19996  24.21316  24.21371
          Condensed to atoms (all electrons):
 Mulliken charges:
               1
     1  C   -0.050228
     2  C   -0.066927
     3  C   -0.070230
     4  C   -0.050008
     5  C   -0.091286
     6  C   -0.092304
     7  C   -0.040167
     8  C   -0.040085
     9  C   -0.003645
    10  C   -0.065914
    11  H    0.084735
    12  H    0.076466
    13  H    0.077763
    14  H    0.084847
    15  H    0.097190
    16  H    0.097726
    17  C   -0.044482
    18  C   -0.040085
    19  C   -0.007936
    20  C   -0.065914
    21  H    0.075153
    22  H    0.076424
    23  C   -0.040167
    24  C   -0.050228
    25  C   -0.003645
    26  C   -0.066927
    27  H    0.076466
    28  H    0.077763
    29  C   -0.070230
    30  C   -0.091286
    31  C   -0.050008
    32  C   -0.092304
    33  H    0.084735
    34  H    0.097726
    35  H    0.097190
    36  H    0.084847
    37  C   -0.038847
    38  C   -0.097969
    39  C   -0.061135
    40  C   -0.054537
    41  C   -0.088642
    42  C   -0.110851
    43  C   -0.026324
    44  C   -0.029692
    45  C   -0.013182
    46  C   -0.099398
    47  H    0.079272
    48  H    0.071314
    49  H    0.111124
    50  H    0.114749
    51  H    0.088987
    52  H    0.091770
    53  C   -0.030632
    54  C   -0.029692
    55  C   -0.016826
    56  C   -0.099398
    57  H    0.069901
    58  H    0.109254
    59  C   -0.026324
    60  C   -0.038847
    61  C   -0.013182
    62  C   -0.097969
    63  H    0.071314
    64  H    0.111124
    65  C   -0.061135
    66  C   -0.088642
    67  C   -0.054537
    68  C   -0.110851
    69  H    0.079272
    70  H    0.091770
    71  H    0.088987
    72  H    0.114749
 Sum of Mulliken charges =   0.00000
 Mulliken charges with hydrogens summed into heavy atoms:
               1
     1  C   -0.050228
     2  C   -0.066927
     3  C    0.014505
     4  C    0.034839
     5  C    0.006440
     6  C    0.004887
     7  C    0.036299
     8  C   -0.040085
     9  C    0.074119
    10  C   -0.065914
    17  C    0.030671
    18  C   -0.040085
    19  C    0.068488
    20  C   -0.065914
    23  C    0.036299
    24  C   -0.050228
    25  C    0.074119
    26  C   -0.066927
    29  C    0.014505
    30  C    0.006440
    31  C    0.034839
    32  C    0.004887
    37  C   -0.038847
    38  C   -0.097969
    39  C    0.018137
    40  C    0.060211
    41  C    0.003128
    42  C   -0.021864
    43  C    0.044990
    44  C   -0.029692
    45  C    0.097942
    46  C   -0.099398
    53  C    0.039269
    54  C   -0.029692
    55  C    0.092428
    56  C   -0.099398
    59  C    0.044990
    60  C   -0.038847
    61  C    0.097942
    62  C   -0.097969
    65  C    0.018137
    66  C    0.003128
    67  C    0.060211
    68  C   -0.021864
         Mulliken charges condensed to fragments:
      1     -0.004973
      2      0.004973
 Electronic spatial extent (au):  <R**2>=          27070.3420
 Charge=              0.0000 electrons
 Dipole moment (field-independent basis, Debye):
    X=             -0.3073    Y=             -1.2235    Z=              0.0000  Tot=              1.2615
 Quadrupole moment (field-independent basis, Debye-Ang):
   XX=           -246.1520   YY=           -248.9275   ZZ=           -219.4029
   XY=              0.1772   XZ=              0.0000   YZ=              0.0000
 Traceless Quadrupole moment (field-independent basis, Debye-Ang):
   XX=             -7.9912   YY=            -10.7667   ZZ=             18.7579
   XY=              0.1772   XZ=              0.0000   YZ=              0.0000
 Octapole moment (field-independent basis, Debye-Ang**2):
  XXX=            -29.1564  YYY=            192.9015  ZZZ=              0.0000  XYY=              6.1677
  XXY=            -76.6636  XXZ=              0.0000  XZZ=             -5.3979  YZZ=            -28.7322
  YYZ=              0.0000  XYZ=              0.0000
 Hexadecapole moment (field-independent basis, Debye-Ang**3):
 XXXX=          -1446.1535 YYYY=         -13190.5210 ZZZZ=         -21010.2011 XXXY=           -737.6693
 XXXZ=              0.0000 YYYX=           -743.7470 YYYZ=              0.0000 ZZZX=              0.0000
 ZZZY=              0.0000 XXYY=          -2514.0119 XXZZ=          -4191.4175 YYZZ=          -5951.3715
 XXYZ=              0.0000 YYXZ=              0.0000 ZZXY=           -217.9341
 N-N= 4.549195045169D+03 E-N=-1.302882509350D+04  KE= 1.686674510552D+03
 Symmetry A'   KE= 9.134148090629D+02
 Symmetry A"   KE= 7.732597014894D+02
 No NMR shielding tensors so no spin-rotation constants.
 Leave Link  601 at Wed Sep 27 16:39:53 2023, MaxMem=  3221225472 cpu:              51.0 elap:               1.4
 (Enter /home/center/opt/aarch64/apps/gaussian16/c01/g16/l122.exe)
 CPIOFr:  IOpCl= 0 IRwI=-1 IRwCP=  731 ICalc= -1 LCPTot=     1419224 Len1MO=     3708034 IndFrg=     1419224
 CPIOFr:  IOpCl= 0 IRwI=-1 IRwCP=  731 ICalc=  0 LCPTot=     1419224 Len1MO=     3708034 IndFrg=     5127258
 Counterpoise: doing calculation for fragment   1 using the basis set of the full-system, NewBq=T
 Leave Link  122 at Wed Sep 27 16:39:56 2023, MaxMem=  3221225472 cpu:               8.4 elap:               0.7
 (Enter /home/center/opt/aarch64/apps/gaussian16/c01/g16/l301.exe)
 Basis read from rwf:  (5D, 7F)
 No pseudopotential information found on rwf file.
 There are   528 symmetry adapted cartesian basis functions of A'  symmetry.
 There are   476 symmetry adapted cartesian basis functions of A"  symmetry.
 There are   504 symmetry adapted basis functions of A'  symmetry.
 There are   456 symmetry adapted basis functions of A"  symmetry.
   960 basis functions,  1632 primitive gaussians,  1004 cartesian basis functions
    73 alpha electrons       73 beta electrons
       nuclear repulsion energy      1494.3575060947 Hartrees.
 IExCor=  402 DFT=T Ex+Corr=B3LYP ExCW=0 ScaHFX=  0.200000
 ScaDFX=  0.800000  0.720000  1.000000  0.810000 ScalE2=  1.000000  1.000000
 IRadAn=      5 IRanWt=     -1 IRanGd=            0 ICorTp=0 IEmpDi=131
 NAtoms=   72 NActive=   72 NUniq=   40 SFac= 3.24D+00 NAtFMM=   60 NAOKFM=T Big=F
 Integral buffers will be    131072 words long.
 Raffenetti 2 integral format.
 Two-electron integral symmetry is turned on.
 R6Disp:  Grimme-D3 Dispersion energy=       -0.0303938888 Hartrees.
 Nuclear repulsion after empirical dispersion term =     1494.3271122059 Hartrees.
 No density basis found on file    718.
 Leave Link  301 at Wed Sep 27 16:39:59 2023, MaxMem=  3221225472 cpu:               2.7 elap:               0.1
 (Enter /home/center/opt/aarch64/apps/gaussian16/c01/g16/l302.exe)
 NPDir=0 NMtPBC=     1 NCelOv=     1 NCel=       1 NClECP=     1 NCelD=      1
         NCelK=      1 NCelE2=     1 NClLst=     1 CellRange=     0.0.
 One-electron integrals computed using PRISM.
 One-electron integral symmetry used in STVInt
 NBasis=   960 RedAO= T EigKep=  3.88D-05  NBF=   504   456
 NBsUse=   960 1.00D-06 EigRej= -1.00D+00 NBFU=   504   456
 Precomputing XC quadrature grid using
 IXCGrd= 4 IRadAn=           5 IRanWt=          -1 IRanGd=           0 AccXCQ= 0.00D+00.
 Generated NRdTot=       0 NPtTot=           0 NUsed=           0 NTot=          32
 NSgBfM=   989   989   989   989   989 MxSgAt=    72 MxSgA2=    72.
 Leave Link  302 at Wed Sep 27 16:40:03 2023, MaxMem=  3221225472 cpu:              62.1 elap:               1.7
 (Enter /home/center/opt/aarch64/apps/gaussian16/c01/g16/l303.exe)
 DipDrv:  MaxL=1.
 Leave Link  303 at Wed Sep 27 16:40:05 2023, MaxMem=  3221225472 cpu:              14.4 elap:               0.4
 (Enter /home/center/opt/aarch64/apps/gaussian16/c01/g16/l401.exe)
 ExpMin= 1.03D-01 ExpMax= 4.56D+03 ExpMxC= 6.82D+02 IAcc=3 IRadAn=         5 AccDes= 0.00D+00
 Harris functional with IExCor=  402 and IRadAn=       5 diagonalized for initial guess.
 HarFok:  IExCor=  402 AccDes= 0.00D+00 IRadAn=         5 IDoV= 1 UseB2=F ITyADJ=14
 ICtDFT=  3500011 ScaDFX=  1.000000  1.000000  1.000000  1.000000
 FoFCou: FMM=F IPFlag=           0 FMFlag=      100000 FMFlg1=        2000
         NFxFlg=           0 DoJE=T BraDBF=F KetDBF=T FulRan=T
         wScrn=  0.000000 ICntrl=       500 IOpCl=  0 I1Cent=   200000004 NGrid=           0
         NMat0=    1 NMatS0=      1 NMatT0=    0 NMatD0=    1 NMtDS0=    0 NMtDT0=    0
 Petite list used in FoFCou.
 Harris En= -847.065945948402    
 JPrj=0 DoOrth=F DoCkMO=F.
 Initial guess orbital symmetries:
       Occupied  (A") (A') (A') (A") (A") (A') (A") (A') (A') (A")
                 (A") (A') (A') (A') (A") (A') (A") (A') (A") (A')
                 (A') (A") (A') (A") (A') (A") (A') (A') (A") (A')
                 (A") (A") (A') (A') (A") (A") (A') (A") (A') (A')
                 (A') (A") (A") (A") (A') (A') (A") (A') (A') (A")
                 (A') (A") (A") (A') (A') (A") (A') (A") (A') (A")
                 (A") (A') (A') (A") (A') (A") (A') (A") (A') (A')
                 (A") (A") (A')
       Virtual   (A') (A") (A") (A') (A') (A") (A') (A") (A') (A")
                 (A') (A') (A") (A') (A") (A') (A") (A') (A') (A")
                 (A") (A") (A') (A') (A") (A') (A') (A') (A') (A')
                 (A") (A") (A') (A") (A') (A") (A') (A") (A") (A')
                 (A') (A") (A") (A') (A") (A') (A") (A') (A") (A')
                 (A') (A") (A') (A") (A') (A") (A') (A') (A") (A')
                 (A") (A') (A') (A") (A") (A') (A") (A') (A") (A')
                 (A") (A') (A") (A") (A') (A') (A') (A') (A') (A')
                 (A") (A') (A") (A") (A') (A") (A') (A") (A') (A")
                 (A") (A") (A") (A') (A") (A') (A') (A") (A') (A')
                 (A') (A') (A") (A') (A") (A') (A") (A') (A') (A")
                 (A") (A') (A') (A") (A') (A') (A") (A") (A") (A")
                 (A") (A') (A') (A") (A") (A') (A') (A') (A") (A')
                 (A") (A') (A') (A') (A") (A') (A") (A') (A") (A')
                 (A') (A') (A") (A") (A') (A") (A') (A") (A') (A")
                 (A') (A") (A") (A") (A') (A") (A') (A') (A') (A")
                 (A") (A') (A') (A') (A") (A') (A") (A") (A') (A")
                 (A") (A') (A") (A') (A') (A") (A') (A") (A') (A')
                 (A") (A') (A") (A') (A") (A") (A') (A") (A') (A")
                 (A') (A') (A') (A") (A') (A') (A") (A") (A') (A")
                 (A') (A") (A") (A") (A') (A") (A') (A') (A') (A")
                 (A') (A") (A') (A") (A") (A') (A") (A') (A") (A')
                 (A") (A') (A') (A") (A') (A") (A') (A') (A') (A")
                 (A') (A") (A') (A") (A') (A") (A") (A') (A") (A")
                 (A') (A") (A') (A") (A') (A') (A') (A") (A") (A")
                 (A") (A') (A") (A') (A') (A') (A') (A') (A") (A")
                 (A') (A") (A") (A') (A') (A') (A") (A") (A') (A")
                 (A') (A') (A") (A") (A") (A') (A') (A") (A') (A")
                 (A') (A") (A') (A") (A') (A") (A') (A") (A') (A")
                 (A') (A') (A") (A') (A') (A") (A') (A") (A') (A')
                 (A") (A') (A') (A") (A") (A") (A') (A") (A") (A")
                 (A') (A') (A") (A") (A') (A') (A') (A") (A') (A')
                 (A") (A') (A") (A") (A') (A') (A") (A') (A') (A")
                 (A") (A') (A') (A') (A") (A') (A") (A') (A') (A")
                 (A") (A") (A') (A") (A') (A") (A") (A') (A') (A')
                 (A') (A") (A") (A') (A") (A') (A") (A') (A') (A")
                 (A') (A') (A") (A') (A") (A") (A") (A') (A") (A')
                 (A') (A") (A') (A") (A') (A") (A") (A') (A") (A')
                 (A") (A') (A') (A") (A") (A') (A') (A") (A') (A')
                 (A") (A") (A") (A') (A') (A") (A') (A') (A") (A")
                 (A") (A') (A') (A") (A') (A") (A") (A') (A') (A")
                 (A") (A') (A') (A') (A') (A") (A") (A') (A") (A')
                 (A") (A") (A') (A") (A') (A") (A') (A") (A') (A")
                 (A") (A') (A') (A') (A') (A') (A") (A") (A") (A')
                 (A") (A') (A') (A') (A") (A') (A") (A") (A") (A")
                 (A') (A') (A') (A') (A') (A") (A') (A") (A") (A")
                 (A') (A") (A') (A") (A') (A") (A') (A") (A') (A')
                 (A") (A') (A') (A") (A") (A") (A') (A") (A') (A")
                 (A') (A") (A") (A') (A") (A') (A') (A") (A") (A')
                 (A") (A') (A") (A') (A') (A") (A') (A') (A") (A")
                 (A') (A") (A') (A") (A') (A") (A") (A') (A') (A')
                 (A') (A") (A") (A") (A") (A') (A") (A') (A') (A')
                 (A") (A') (A") (A') (A") (A") (A') (A') (A") (A')
                 (A') (A") (A") (A') (A') (A") (A') (A") (A') (A')
                 (A") (A") (A') (A') (A') (A") (A') (A") (A') (A")
                 (A') (A") (A") (A') (A") (A') (A") (A') (A') (A")
                 (A') (A') (A") (A') (A") (A") (A") (A") (A') (A")
                 (A') (A') (A') (A') (A") (A') (A') (A") (A') (A")
                 (A') (A") (A") (A") (A') (A') (A") (A") (A") (A')
                 (A') (A") (A') (A') (A') (A") (A') (A') (A") (A")
                 (A') (A") (A") (A") (A') (A') (A") (A') (A") (A')
                 (A') (A") (A") (A') (A') (A") (A') (A") (A') (A")
                 (A') (A') (A") (A") (A') (A") (A") (A') (A') (A")
                 (A") (A') (A") (A") (A") (A') (A') (A') (A') (A")
                 (A') (A") (A') (A') (A") (A") (A') (A") (A') (A")
                 (A') (A") (A') (A") (A') (A") (A") (A') (A") (A')
                 (A") (A') (A") (A') (A") (A') (A") (A") (A') (A')
                 (A') (A") (A") (A') (A') (A") (A') (A") (A') (A')
                 (A") (A') (A") (A') (A') (A") (A") (A') (A') (A")
                 (A') (A") (A') (A') (A") (A") (A') (A") (A') (A')
[...]
                 (A') (A') (A") (A") (A') (A") (A') (A") (A') (A')
                 (A") (A") (A')
       Virtual   (A') (A") (A") (A') (A') (A") (A') (A') (A') (A")
                 (A") (A') (A") (A') (A") (A') (A") (A") (A') (A")
                 (A') (A') (A") (A') (A") (A') (A') (A') (A') (A")
                 (A") (A") (A") (A') (A') (A") (A') (A") (A') (A")
                 (A') (A') (A') (A") (A') (A") (A") (A') (A') (A")
                 (A") (A') (A') (A") (A') (A") (A") (A") (A') (A")
                 (A') (A') (A') (A') (A') (A") (A') (A') (A") (A")
                 (A") (A') (A') (A') (A") (A') (A") (A") (A") (A')
                 (A') (A") (A') (A") (A") (A') (A") (A') (A') (A')
                 (A') (A') (A") (A") (A") (A") (A') (A") (A') (A")
                 (A') (A') (A') (A") (A") (A') (A') (A") (A') (A")
                 (A') (A") (A") (A") (A') (A') (A") (A') (A') (A")
                 (A') (A") (A") (A') (A') (A") (A') (A") (A') (A")
                 (A") (A') (A') (A') (A') (A") (A") (A") (A') (A")
                 (A') (A") (A') (A") (A') (A') (A") (A") (A') (A")
                 (A') (A") (A') (A") (A') (A') (A") (A') (A") (A")
                 (A') (A") (A') (A') (A") (A") (A') (A") (A') (A")
                 (A') (A') (A") (A') (A') (A") (A") (A') (A') (A')
                 (A") (A') (A") (A") (A") (A") (A') (A") (A') (A')
                 (A") (A') (A") (A') (A') (A') (A") (A') (A") (A')
                 (A") (A") (A') (A') (A") (A") (A') (A') (A") (A')
                 (A') (A') (A') (A") (A") (A") (A") (A') (A') (A")
                 (A') (A") (A") (A') (A") (A') (A") (A') (A") (A')
                 (A") (A') (A') (A") (A') (A") (A") (A') (A') (A")
                 (A") (A') (A') (A") (A") (A') (A") (A") (A") (A')
                 (A') (A") (A') (A') (A") (A') (A') (A") (A') (A")
                 (A") (A') (A") (A') (A') (A") (A") (A") (A') (A')
                 (A") (A') (A') (A") (A") (A") (A') (A") (A') (A')
                 (A") (A') (A") (A') (A") (A') (A') (A') (A") (A')
                 (A") (A") (A') (A') (A") (A") (A') (A") (A') (A")
                 (A') (A') (A") (A") (A') (A') (A") (A') (A') (A')
                 (A") (A") (A') (A") (A') (A") (A') (A") (A') (A')
                 (A') (A") (A") (A") (A') (A") (A') (A') (A') (A")
                 (A") (A') (A") (A') (A') (A") (A') (A") (A") (A')
                 (A') (A") (A') (A") (A") (A') (A') (A") (A') (A")
                 (A') (A") (A') (A") (A') (A") (A") (A') (A') (A")
                 (A') (A") (A') (A') (A") (A") (A') (A") (A') (A')
                 (A") (A') (A") (A') (A') (A") (A') (A") (A') (A")
                 (A") (A') (A") (A') (A") (A') (A") (A') (A') (A")
                 (A") (A') (A") (A') (A') (A") (A") (A') (A') (A")
                 (A') (A") (A') (A") (A') (A') (A")
 The electronic state is 1-A'.
 Alpha  occ. eigenvalues --  -10.18931 -10.18930 -10.18896 -10.18895 -10.18848
 Alpha  occ. eigenvalues --  -10.18848 -10.18813 -10.18813 -10.17956 -10.17955
 Alpha  occ. eigenvalues --  -10.17920 -10.17920 -10.17919 -10.17919 -10.17875
 Alpha  occ. eigenvalues --  -10.17875 -10.17863 -10.17863 -10.17808 -10.17808
 Alpha  occ. eigenvalues --  -10.17781 -10.17781  -0.89340  -0.87865  -0.85549
 Alpha  occ. eigenvalues --   -0.82415  -0.79820  -0.78521  -0.78314  -0.75991
 Alpha  occ. eigenvalues --   -0.74255  -0.72901  -0.69196  -0.67344  -0.62728
 Alpha  occ. eigenvalues --   -0.62370  -0.61108  -0.59964  -0.59301  -0.57689
 Alpha  occ. eigenvalues --   -0.52709  -0.52573  -0.52293  -0.49654  -0.48513
 Alpha  occ. eigenvalues --   -0.47160  -0.46110  -0.45590  -0.45476  -0.43928
 Alpha  occ. eigenvalues --   -0.43182  -0.42578  -0.41808  -0.41572  -0.41386
 Alpha  occ. eigenvalues --   -0.40692  -0.40405  -0.39579  -0.38193  -0.36732
 Alpha  occ. eigenvalues --   -0.36341  -0.35550  -0.34094  -0.33809  -0.33058
 Alpha  occ. eigenvalues --   -0.32930  -0.31612  -0.29665  -0.28406  -0.26623
 Alpha  occ. eigenvalues --   -0.24364  -0.22582  -0.17855
 Alpha virt. eigenvalues --   -0.09755  -0.04464  -0.02747  -0.00147   0.02073
 Alpha virt. eigenvalues --    0.02370   0.03189   0.04746   0.04859   0.04871
 Alpha virt. eigenvalues --    0.06161   0.06575   0.07968   0.08162   0.08303
 Alpha virt. eigenvalues --    0.09607   0.10049   0.11524   0.11533   0.13796
 Alpha virt. eigenvalues --    0.14111   0.14670   0.18092   0.18194   0.18832
 Alpha virt. eigenvalues --    0.19391   0.22815   0.23002   0.24379   0.24942
 Alpha virt. eigenvalues --    0.25581   0.27528   0.27575   0.28012   0.28228
 Alpha virt. eigenvalues --    0.28947   0.29389   0.30158   0.30759   0.31175
 Alpha virt. eigenvalues --    0.32897   0.34528   0.36420   0.36484   0.37134
 Alpha virt. eigenvalues --    0.37503   0.37629   0.37651   0.38116   0.38643
 Alpha virt. eigenvalues --    0.39094   0.39439   0.39739   0.40236   0.40435
 Alpha virt. eigenvalues --    0.41918   0.41926   0.41940   0.42289   0.42318
 Alpha virt. eigenvalues --    0.42643   0.43748   0.44233   0.44835   0.45295
 Alpha virt. eigenvalues --    0.45683   0.45924   0.45953   0.46379   0.47165
 Alpha virt. eigenvalues --    0.47805   0.47809   0.47978   0.48073   0.48231
 Alpha virt. eigenvalues --    0.48568   0.49414   0.49572   0.51377   0.51846
 Alpha virt. eigenvalues --    0.52370   0.53118   0.53671   0.55998   0.57923
 Alpha virt. eigenvalues --    0.57955   0.59048   0.59201   0.60433   0.60585
 Alpha virt. eigenvalues --    0.60693   0.61101   0.61690   0.62105   0.62173
 Alpha virt. eigenvalues --    0.63432   0.63481   0.64458   0.64535   0.65533
 Alpha virt. eigenvalues --    0.66693   0.66910   0.67680   0.67724   0.70658
 Alpha virt. eigenvalues --    0.71305   0.71405   0.71494   0.72803   0.73989
 Alpha virt. eigenvalues --    0.75405   0.75894   0.76289   0.77801   0.77809
 Alpha virt. eigenvalues --    0.78943   0.79160   0.79723   0.81162   0.81509
 Alpha virt. eigenvalues --    0.82881   0.83001   0.84383   0.84585   0.84713
 Alpha virt. eigenvalues --    0.88087   0.89711   0.89765   0.91536   0.92083
 Alpha virt. eigenvalues --    0.92578   0.93749   0.95806   0.96107   0.96442
 Alpha virt. eigenvalues --    0.96590   0.96905   0.98547   1.00356   1.01118
 Alpha virt. eigenvalues --    1.02686   1.03027   1.03354   1.04405   1.05244
 Alpha virt. eigenvalues --    1.05439   1.05525   1.05950   1.07395   1.07547
 Alpha virt. eigenvalues --    1.07686   1.08438   1.10005   1.10036   1.12070
 Alpha virt. eigenvalues --    1.13223   1.13544   1.13650   1.14526   1.15341
 Alpha virt. eigenvalues --    1.17432   1.18332   1.19657   1.20432   1.23014
 Alpha virt. eigenvalues --    1.23618   1.27884   1.28234   1.30579   1.32076
 Alpha virt. eigenvalues --    1.32743   1.34942   1.37641   1.39236   1.39896
 Alpha virt. eigenvalues --    1.39942   1.40725   1.42751   1.43476   1.43554
 Alpha virt. eigenvalues --    1.45057   1.46086   1.47119   1.47538   1.48841
 Alpha virt. eigenvalues --    1.49280   1.49417   1.50258   1.50674   1.52268
 Alpha virt. eigenvalues --    1.52650   1.53402   1.54331   1.54372   1.54781
 Alpha virt. eigenvalues --    1.54807   1.57107   1.57715   1.58569   1.59882
 Alpha virt. eigenvalues --    1.60106   1.62692   1.63242   1.64856   1.66641
 Alpha virt. eigenvalues --    1.69292   1.69605   1.69709   1.70649   1.71804
 Alpha virt. eigenvalues --    1.72459   1.72619   1.73075   1.73096   1.73680
 Alpha virt. eigenvalues --    1.77494   1.78519   1.79157   1.79419   1.80511
 Alpha virt. eigenvalues --    1.81616   1.81887   1.82058   1.83581   1.84039
 Alpha virt. eigenvalues --    1.85487   1.87392   1.87456   1.87577   1.87728
 Alpha virt. eigenvalues --    1.88131   1.88613   1.90743   1.91387   1.92190
 Alpha virt. eigenvalues --    1.92193   1.92572   1.92670   1.93517   1.93938
 Alpha virt. eigenvalues --    1.94544   1.95483   1.97262   1.99429   2.00088
 Alpha virt. eigenvalues --    2.00602   2.01362   2.03019   2.05757   2.08293
 Alpha virt. eigenvalues --    2.09111   2.09256   2.09792   2.12192   2.14098
 Alpha virt. eigenvalues --    2.15528   2.15584   2.17200   2.19751   2.20833
 Alpha virt. eigenvalues --    2.21576   2.22525   2.23381   2.24503   2.26441
 Alpha virt. eigenvalues --    2.26972   2.27242   2.27719   2.28046   2.29391
 Alpha virt. eigenvalues --    2.33301   2.35725   2.39155   2.39384   2.40817
 Alpha virt. eigenvalues --    2.42649   2.43076   2.45776   2.45994   2.46870
 Alpha virt. eigenvalues --    2.51623   2.51954   2.53354   2.53485   2.55138
 Alpha virt. eigenvalues --    2.56159   2.58701   2.58838   2.59764   2.59776
 Alpha virt. eigenvalues --    2.60682   2.61147   2.61719   2.62222   2.63349
 Alpha virt. eigenvalues --    2.63999   2.64478   2.66054   2.66794   2.67121
 Alpha virt. eigenvalues --    2.67374   2.68356   2.68872   2.68876   2.69372
 Alpha virt. eigenvalues --    2.69557   2.69907   2.70083   2.70281   2.73482
 Alpha virt. eigenvalues --    2.74771   2.74836   2.76066   2.77101   2.77577
 Alpha virt. eigenvalues --    2.78232   2.78455   2.78850   2.80822   2.82359
 Alpha virt. eigenvalues --    2.85535   2.85993   2.86737   2.87294   2.90966
 Alpha virt. eigenvalues --    2.91783   2.92195   2.93676   2.95232   2.95887
 Alpha virt. eigenvalues --    2.99270   2.99858   3.03165   3.05604   3.06852
 Alpha virt. eigenvalues --    3.07371   3.15988   3.16029   3.16647   3.19843
 Alpha virt. eigenvalues --    3.20017   3.23601   3.29134   3.29680   3.31610
 Alpha virt. eigenvalues --    3.35095   3.35458   3.35677   3.35858   3.38023
 Alpha virt. eigenvalues --    3.39887   3.41413   3.44960   3.45362   3.47993
 Alpha virt. eigenvalues --    3.48278   3.50401   3.53073   3.57439   3.58649
 Alpha virt. eigenvalues --    3.61466   3.62620   3.63208   3.63698   3.65910
 Alpha virt. eigenvalues --    3.67534   3.67678   4.00384   4.00442   4.01859
 Alpha virt. eigenvalues --    4.02182   4.16133   4.16678   4.17360   4.21240
 Alpha virt. eigenvalues --    4.22396   4.22517   4.25488   4.38492   4.62290
 Alpha virt. eigenvalues --    4.79179   4.79740   4.80562   4.82562   4.83014
 Alpha virt. eigenvalues --   23.39176  23.54541  23.69085  23.77378  23.80419
 Alpha virt. eigenvalues --   23.81537  23.86099  23.89067  23.89154  23.92210
 Alpha virt. eigenvalues --   23.97563  23.98365  24.09049  24.09932  24.10529
 Alpha virt. eigenvalues --   24.12220  24.13779  24.14375  24.15775  24.15810
 Alpha virt. eigenvalues --   24.20452  24.20497
          Condensed to atoms (all electrons):
 Mulliken charges:
               1
     1  C    0.000000
     2  C    0.000000
     3  C    0.000000
     4  C    0.000000
     5  C    0.000000
     6  C    0.000000
     7  C    0.000000
     8  C    0.000000
     9  C    0.000000
    10  C    0.000000
    11  H    0.000000
    12  H    0.000000
    13  H    0.000000
    14  H    0.000000
    15  H    0.000000
    16  H    0.000000
    17  C    0.000000
    18  C    0.000000
    19  C    0.000000
    20  C    0.000000
    21  H    0.000000
    22  H    0.000000
    23  C    0.000000
    24  C    0.000000
    25  C    0.000000
    26  C    0.000000
    27  H    0.000000
    28  H    0.000000
    29  C    0.000000
    30  C    0.000000
    31  C    0.000000
    32  C    0.000000
    33  H    0.000000
    34  H    0.000000
    35  H    0.000000
    36  H    0.000000
    37  C   -0.059168
    38  C   -0.059168
    39  C   -0.055977
    40  C   -0.055977
    41  C   -0.092198
    42  C   -0.092198
    43  C   -0.016525
    44  C   -0.054498
    45  C   -0.016525
    46  C   -0.054498
    47  H    0.082122
    48  H    0.074853
    49  H    0.074853
    50  H    0.082122
    51  H    0.094847
    52  H    0.094847
    53  C   -0.020341
    54  C   -0.054498
    55  C   -0.020341
    56  C   -0.054498
    57  H    0.073428
    58  H    0.073428
    59  C   -0.016525
    60  C   -0.059168
    61  C   -0.016525
    62  C   -0.059168
    63  H    0.074853
    64  H    0.074853
    65  C   -0.055977
    66  C   -0.092198
    67  C   -0.055977
    68  C   -0.092198
    69  H    0.082122
    70  H    0.094847
    71  H    0.094847
    72  H    0.082122
 Sum of Mulliken charges =   0.00000
 Mulliken charges with hydrogens summed into heavy atoms:
               1
     1  C    0.000000
     2  C    0.000000
     3  C    0.000000
     4  C    0.000000
     5  C    0.000000
     6  C    0.000000
     7  C    0.000000
     8  C    0.000000
     9  C    0.000000
    10  C    0.000000
    17  C    0.000000
    18  C    0.000000
    19  C    0.000000
    20  C    0.000000
    23  C    0.000000
    24  C    0.000000
    25  C    0.000000
    26  C    0.000000
    29  C    0.000000
    30  C    0.000000
    31  C    0.000000
    32  C    0.000000
    37  C   -0.059168
    38  C   -0.059168
    39  C    0.026144
    40  C    0.026144
    41  C    0.002649
    42  C    0.002649
    43  C    0.058328
    44  C   -0.054498
    45  C    0.058328
    46  C   -0.054498
    53  C    0.053087
    54  C   -0.054498
    55  C    0.053087
    56  C   -0.054498
    59  C    0.058328
    60  C   -0.059168
    61  C    0.058328
    62  C   -0.059168
    65  C    0.026144
    66  C    0.002649
    67  C    0.026144
    68  C    0.002649
         Mulliken charges condensed to fragments:
      1      0.000000
      2      0.000000
 Electronic spatial extent (au):  <R**2>=          15685.0348
 Charge=              0.0000 electrons
 Dipole moment (field-independent basis, Debye):
    X=              0.0000    Y=              0.0000    Z=              0.0000  Tot=              0.0000
 Quadrupole moment (field-independent basis, Debye-Ang):
   XX=           -136.3921   YY=           -110.7480   ZZ=           -109.0115
   XY=              0.0000   XZ=              0.0000   YZ=              0.0000
 Traceless Quadrupole moment (field-independent basis, Debye-Ang):
   XX=            -17.6749   YY=              7.9692   ZZ=              9.7057
   XY=              0.0000   XZ=              0.0000   YZ=              0.0000
 Octapole moment (field-independent basis, Debye-Ang**2):
  XXX=           1012.6594  YYY=            822.2622  ZZZ=              0.0000  XYY=            274.0874
  XXY=            337.5531  XXZ=              0.0000  XZZ=            269.7896  YZZ=            269.7896
  YYZ=              0.0000  XYZ=              0.0000
 Hexadecapole moment (field-independent basis, Debye-Ang**3):
 XXXX=          -5166.8121 YYYY=          -5186.7070 ZZZZ=         -10461.4324 XXXY=          -2506.2041
 XXXZ=              0.0000 YYYX=          -2034.9951 YYYZ=              0.0000 ZZZX=              0.0000
 ZZZY=              0.0000 XXYY=          -1770.1484 XXZZ=          -2875.6273 YYZZ=          -2636.9097
 XXYZ=              0.0000 YYXZ=              0.0000 ZZXY=           -667.6953
 N-N= 1.494327112715D+03 E-N=-4.953709177005D+03  KE= 8.433374905337D+02
 Symmetry A'   KE= 4.567052305547D+02
 Symmetry A"   KE= 3.866322599790D+02
 No NMR shielding tensors so no spin-rotation constants.
 Leave Link  601 at Wed Sep 27 16:56:30 2023, MaxMem=  3221225472 cpu:              20.6 elap:               0.5
 (Enter /home/center/opt/aarch64/apps/gaussian16/c01/g16/l122.exe)
 CPIOFr:  IOpCl= 0 IRwI=-1 IRwCP=  731 ICalc=  4 LCPTot=     1419224 Len1MO=     3708034 IndFrg=    19959394
 Restoring MOs from calculation   1 to rwf.
 CPIOFr:  IOpCl= 0 IRwI=-2 IRwCP=  731 ICalc=  0 LCPTot=     1419224 Len1MO=     3708034 IndFrg=     5127258
 Counterpoise corrected energy =   -1694.043225467204
                   BSSE energy =       0.000263417981
              sum of fragments =   -1694.039683044258
           complexation energy =      -2.39 kcal/mole (raw)
           complexation energy =      -2.22 kcal/mole (corrected)
 Leave Link  122 at Wed Sep 27 16:56:33 2023, MaxMem=  3221225472 cpu:               8.3 elap:               0.4
 (Enter /home/center/opt/aarch64/apps/gaussian16/c01/g16/l9999.exe)

 Test job not archived.
 1\1\GINC-FX0561\SP\RB3LYP\6-311G(d,p)\C44H28\Z40145W\27-Sep-2023\0\\#P
  TEST b3lyp/6-311G** EmpiricalDispersion=GD3 counterpoise=2\\pentacene
 _A1=0_A2=0_A3=45_p2\\0,1\C,0,-0.5039478476,0.5239478476,-3.6612755801\
 C,0,0.5239480325,-0.5039480325,-3.6612755629\C,0,-0.9861248463,1.00612
 48463,-4.9235927708\C,0,1.0061250889,-0.9861250889,-4.9235926697\C,0,-
 0.4963213507,0.5163213507,-6.096356521\C,0,0.5163216812,-0.4963216812,
 -6.0963564796\C,0,-0.9844684311,1.0044684311,-2.4533174875\C,0,-0.5044
 88426,0.524488426,-1.2140288145\C,0,1.0044685359,-0.9844685359,-2.4533
 173917\C,0,0.5244885437,-0.5044885437,-1.2140288362\H,0,-1.7533559667,
 1.7733559667,-4.9232600459\H,0,-1.7521866813,1.7721866813,-2.453928581
 5\H,0,1.7721859268,-1.7521859268,-2.4539284818\H,0,1.7733558421,-1.753
 3558421,-4.9232597785\H,0,0.8905568758,-0.8705568758,-7.0425276922\H,0
 ,-0.8705565046,0.8905565046,-7.042527775\C,0,-0.9848184961,1.004818496
 1,0.0099998782\C,0,-0.5044883957,0.5244883957,1.2340295553\C,0,1.00481
 85643,-0.9848185643,0.0099998696\C,0,0.5244885146,-0.5044885146,1.2340
 295261\H,0,-1.7524699697,1.7724699697,0.0099999205\H,0,1.772468921,-1.
 752468921,0.0099999641\C,0,-0.9844683048,1.0044683048,2.4733171385\C,0
 ,-0.5039477114,0.5239477114,3.681276331\C,0,1.0044684211,-0.9844684211
 ,2.4733170835\C,0,0.5239479079,-0.5039479079,3.6812763217\H,0,-1.75218
 65527,1.7721865527,2.4739285326\H,0,1.7721858092,-1.7521858092,2.47392
 83796\C,0,-0.9861245177,1.0061245177,4.9435920588\C,0,-0.4963209372,0.
 5163209372,6.116356633\C,0,1.0061247659,-0.9861247659,4.9435919377\C,0
 ,0.5163212637,-0.4963212637,6.1163566075\H,0,-1.7533556504,1.773355650
 4,4.9432601504\H,0,-0.8705567426,0.8905567426,7.0625274368\H,0,0.89055
 70967,-0.8705570967,7.0625272142\H,0,1.7733555414,-1.7533555414,4.9432
 599297\C,0,6.4960521524,0.5239478476,-3.6612755801\C,0,7.5239480325,-0
 .5039480325,-3.6612755629\C,0,6.0138751537,1.0061248463,-4.9235927708\
 C,0,8.0061250889,-0.9861250889,-4.9235926697\C,0,6.5036786493,0.516321
 3507,-6.096356521\C,0,7.5163216812,-0.4963216812,-6.0963564796\C,0,6.0
 155315689,1.0044684311,-2.4533174875\C,0,6.495511574,0.524488426,-1.21
 40288145\C,0,8.0044685359,-0.9844685359,-2.4533173917\C,0,7.5244885437
 ,-0.5044885437,-1.2140288362\H,0,5.2466440333,1.7733559667,-4.92326004
 59\H,0,5.2478133187,1.7721866813,-2.4539285815\H,0,8.7721859268,-1.752
 1859268,-2.4539284818\H,0,8.7733558421,-1.7533558421,-4.9232597785\H,0
 ,7.8905568758,-0.8705568758,-7.0425276922\H,0,6.1294434954,0.890556504
 6,-7.042527775\C,0,6.0151815039,1.0048184961,0.0099998782\C,0,6.495511
 6043,0.5244883957,1.2340295553\C,0,8.0048185643,-0.9848185643,0.009999
 8696\C,0,7.5244885146,-0.5044885146,1.2340295261\H,0,5.2475300303,1.77
 24699697,0.0099999205\H,0,8.772468921,-1.752468921,0.0099999641\C,0,6.
 0155316952,1.0044683048,2.4733171385\C,0,6.4960522886,0.5239477114,3.6
 81276331\C,0,8.0044684211,-0.9844684211,2.4733170835\C,0,7.5239479079,
 -0.5039479079,3.6812763217\H,0,5.2478134473,1.7721865527,2.4739285326\
 H,0,8.7721858092,-1.7521858092,2.4739283796\C,0,6.0138754823,1.0061245
 177,4.9435920588\C,0,6.5036790628,0.5163209372,6.116356633\C,0,8.00612
 47659,-0.9861247659,4.9435919377\C,0,7.5163212637,-0.4963212637,6.1163
 566075\H,0,5.2466443496,1.7733556504,4.9432601504\H,0,6.1294432574,0.8
 905567426,7.0625274368\H,0,7.8905570967,-0.8705570967,7.0625272142\H,0
 ,8.7733555414,-1.7533555414,4.9432599297\\Version=Fujitsu-Arm-G16RevC.
 01\State=1-A'\HF=-847.0198415\RMSD=3.180e-09\Dipole=-0.0000007,0.00000
 08,0.\Quadrupole=-8.0935271,-6.2206603,14.3141874,-18.1106223,0.,0.\PG
 =CS [SG(C4H4),X(C40H24)]\\@


 TERRY FORSTER, PORTLY ATLANTA BRAVES RELIEVER,
 ANNOUNCING THAT HE WAS GOING TO A FAT FARM:
 "A WAIST IS A TERRIBLE THING TO MIND."
 Job cpu time:       0 days  3 hours  0 minutes 30.6 seconds.
 Elapsed time:       0 days  0 hours  4 minutes 44.5 seconds.
 File lengths (MBytes):  RWF=    718 Int=      0 D2E=      0 Chk=    208 Scr=      1
 Normal termination of Gaussian 16 at Wed Sep 27 16:56:38 2023.
