 Entering Gaussian System, Link 0=g16
 Initial command:
 /home/center/opt/aarch64/apps/gaussian16/c01/g16/l1.exe "/data/tmp/Gtmp/1006998/Gau-52.inp" -scrdir="/data/tmp/Gtmp/1006998/"
 Entering Link 1 = /home/center/opt/aarch64/apps/gaussian16/c01/g16/l1.exe PID=        53.
  
 Copyright (c) 1988-2019, Gaussian, Inc.  All Rights Reserved.
  
 This is part of the Gaussian(R) 16 program.  It is based on
 the Gaussian(R) 09 system (copyright 2009, Gaussian, Inc.),
 the Gaussian(R) 03 system (copyright 2003, Gaussian, Inc.),
 the Gaussian(R) 98 system (copyright 1998, Gaussian, Inc.),
 the Gaussian(R) 94 system (copyright 1995, Gaussian, Inc.),
 the Gaussian 92(TM) system (copyright 1992, Gaussian, Inc.),
 the Gaussian 90(TM) system (copyright 1990, Gaussian, Inc.),
 the Gaussian 88(TM) system (copyright 1988, Gaussian, Inc.),
 the Gaussian 86(TM) system (copyright 1986, Carnegie Mellon
 University), and the Gaussian 82(TM) system (copyright 1983,
 Carnegie Mellon University). Gaussian is a federally registered
 trademark of Gaussian, Inc.
  
 This software contains proprietary and confidential information,
 including trade secrets, belonging to Gaussian, Inc.
  
 This software is provided under written license and may be
 used, copied, transmitted, or stored only in accord with that
 written license.
  
 The following legend is applicable only to US Government
 contracts under FAR:
  
                    RESTRICTED RIGHTS LEGEND
  
 Use, reproduction and disclosure by the US Government is
 subject to restrictions as set forth in subparagraphs (a)
 and (c) of the Commercial Computer Software - Restricted
 Rights clause in FAR 52.227-19.
  
 Gaussian, Inc.
 340 Quinnipiac St., Bldg. 40, Wallingford CT 06492
  
  
 ---------------------------------------------------------------
 Warning -- This program may not be used in any manner that
 competes with the business of Gaussian, Inc. or will provide
 assistance to any competitor of Gaussian, Inc.  The licensee
 of this program is prohibited from giving any competitor of
 Gaussian, Inc. access to this program.  By using this program,
 the user acknowledges that Gaussian, Inc. is engaged in the
 business of creating and licensing software in the field of
 computational chemistry and represents and warrants to the
 licensee that it is not a competitor of Gaussian, Inc. and that
 it will not use this program in any manner prohibited above.
 ---------------------------------------------------------------
  

 Cite this work as:
 Gaussian 16, Revision C.01,
 M. J. Frisch, G. W. Trucks, H. B. Schlegel, G. E. Scuseria, 
 M. A. Robb, J. R. Cheeseman, G. Scalmani, V. Barone, 
 G. A. Petersson, H. Nakatsuji, X. Li, M. Caricato, A. V. Marenich, 
 J. Bloino, B. G. Janesko, R. Gomperts, B. Mennucci, H. P. Hratchian, 
 J. V. Ortiz, A. F. Izmaylov, J. L. Sonnenberg, D. Williams-Young, 
 F. Ding, F. Lipparini, F. Egidi, J. Goings, B. Peng, A. Petrone, 
 T. Henderson, D. Ranasinghe, V. G. Zakrzewski, J. Gao, N. Rega, 
 G. Zheng, W. Liang, M. Hada, M. Ehara, K. Toyota, R. Fukuda, 
 J. Hasegawa, M. Ishida, T. Nakajima, Y. Honda, O. Kitao, H. Nakai, 
 T. Vreven, K. Throssell, J. A. Montgomery, Jr., J. E. Peralta, 
 F. Ogliaro, M. J. Bearpark, J. J. Heyd, E. N. Brothers, K. N. Kudin, 
 V. N. Staroverov, T. A. Keith, R. Kobayashi, J. Normand, 
 K. Raghavachari, A. P. Rendell, J. C. Burant, S. S. Iyengar, 
 J. Tomasi, M. Cossi, J. M. Millam, M. Klene, C. Adamo, R. Cammi, 
 J. W. Ochterski, R. L. Martin, K. Morokuma, O. Farkas, 
 J. B. Foresman, and D. J. Fox, Gaussian, Inc., Wallingford CT, 2019.
 
 ************************************************
 Gaussian 16:  Fujitsu-Arm-G16RevC.01  3-Jul-2019
                   27-Sep-2023 
 ************************************************
 %mem=24GB
 %nproc=42
 Will use up to   42 processors via shared memory.
 -------------------------------------------------------------
 #P TEST b3lyp/6-311G** EmpiricalDispersion=GD3 counterpoise=2
 -------------------------------------------------------------
 1/38=1,62=2,172=1/1;
 2/12=2,17=6,18=5,40=1/2;
 1/38=1,53=2,62=2,63=1/22;
 3/5=4,6=6,7=101,11=2,25=1,30=1,74=-5,124=31/1,2,3;
 4//1;
 5/5=2,38=5/2;
 6/7=2,8=2,9=2,10=2,28=1/1;
 1/53=2,62=2,63=1/22;
 3/5=7,6=11,7=101,11=2,25=1,30=1,74=-5,82=7,124=31/1,2,3;
 4//1;
 5/5=2,38=5/2;
 6/7=2,8=2,9=2,10=2,28=1/1;
 1/53=2,62=2,63=1/22(-4);
 99/5=1,9=1/99;
 Leave Link    1 at Wed Sep 27 16:57:58 2023, MaxMem=  3221225472 cpu:               7.1 elap:               0.2
 (Enter /home/center/opt/aarch64/apps/gaussian16/c01/g16/l101.exe)
 ----------------------------
 pentacene_A1=0_A2=0_A3=45_t1
 ----------------------------
 Symbolic Z-matrix:
 Charge =  0 Multiplicity = 1 in supermolecule
 Charge =  0 Multiplicity = 1 in fragment      1.
 Charge =  0 Multiplicity = 1 in fragment      2.
 C(Fragment=1)        -0.50395   0.52395  -3.66128 
 C(Fragment=1)         0.52395  -0.50395  -3.66128 
 C(Fragment=1)        -0.98612   1.00612  -4.92359 
 C(Fragment=1)         1.00613  -0.98613  -4.92359 
 C(Fragment=1)        -0.49632   0.51632  -6.09636 
 C(Fragment=1)         0.51632  -0.49632  -6.09636 
 C(Fragment=1)        -0.98447   1.00447  -2.45332 
 C(Fragment=1)        -0.50449   0.52449  -1.21403 
 C(Fragment=1)         1.00447  -0.98447  -2.45332 
 C(Fragment=1)         0.52449  -0.50449  -1.21403 
 H(Fragment=1)        -1.75336   1.77336  -4.92326 
 H(Fragment=1)        -1.75219   1.77219  -2.45393 
 H(Fragment=1)         1.77219  -1.75219  -2.45393 
 H(Fragment=1)         1.77336  -1.75336  -4.92326 
 H(Fragment=1)         0.89056  -0.87056  -7.04253 
 H(Fragment=1)        -0.87056   0.89056  -7.04253 
 C(Fragment=1)        -0.98482   1.00482   0.01 
 C(Fragment=1)        -0.50449   0.52449   1.23403 
 C(Fragment=1)         1.00482  -0.98482   0.01 
 C(Fragment=1)         0.52449  -0.50449   1.23403 
 H(Fragment=1)        -1.75247   1.77247   0.01 
 H(Fragment=1)         1.77247  -1.75247   0.01 
 C(Fragment=1)        -0.98447   1.00447   2.47332 
 C(Fragment=1)        -0.50395   0.52395   3.68128 
 C(Fragment=1)         1.00447  -0.98447   2.47332 
 C(Fragment=1)         0.52395  -0.50395   3.68128 
 H(Fragment=1)        -1.75219   1.77219   2.47393 
 H(Fragment=1)         1.77219  -1.75219   2.47393 
 C(Fragment=1)        -0.98612   1.00612   4.94359 
 C(Fragment=1)        -0.49632   0.51632   6.11636 
 C(Fragment=1)         1.00612  -0.98612   4.94359 
 C(Fragment=1)         0.51632  -0.49632   6.11636 
 H(Fragment=1)        -1.75336   1.77336   4.94326 
 H(Fragment=1)        -0.87056   0.89056   7.06253 
 H(Fragment=1)         0.89056  -0.87056   7.06253 
 H(Fragment=1)         1.77336  -1.75336   4.94326 
 C(Fragment=2)         5.52395   2.52395  -3.66128 
 C(Fragment=2)         4.49605   1.49605  -3.66128 
 C(Fragment=2)         6.00612   3.00612  -4.92359 
 C(Fragment=2)         4.01387   1.01387  -4.92359 
 C(Fragment=2)         5.51632   2.51632  -6.09636 
 C(Fragment=2)         4.50368   1.50368  -6.09636 
 C(Fragment=2)         6.00447   3.00447  -2.45332 
 C(Fragment=2)         5.52449   2.52449  -1.21403 
 C(Fragment=2)         4.01553   1.01553  -2.45332 
 C(Fragment=2)         4.49551   1.49551  -1.21403 
 H(Fragment=2)         6.77336   3.77336  -4.92326 
 H(Fragment=2)         6.77219   3.77219  -2.45393 
 H(Fragment=2)         3.24781   0.24781  -2.45393 
 H(Fragment=2)         3.24664   0.24664  -4.92326 
 H(Fragment=2)         4.12944   1.12944  -7.04253 
 H(Fragment=2)         5.89056   2.89056  -7.04253 
 C(Fragment=2)         6.00482   3.00482   0.01 
 C(Fragment=2)         5.52449   2.52449   1.23403 
 C(Fragment=2)         4.01518   1.01518   0.01 
 C(Fragment=2)         4.49551   1.49551   1.23403 
 H(Fragment=2)         6.77247   3.77247   0.01 
 H(Fragment=2)         3.24753   0.24753   0.01 
 C(Fragment=2)         6.00447   3.00447   2.47332 
 C(Fragment=2)         5.52395   2.52395   3.68128 
 C(Fragment=2)         4.01553   1.01553   2.47332 
 C(Fragment=2)         4.49605   1.49605   3.68128 
 H(Fragment=2)         6.77219   3.77219   2.47393 
 H(Fragment=2)         3.24781   0.24781   2.47393 
 C(Fragment=2)         6.00612   3.00612   4.94359 
 C(Fragment=2)         5.51632   2.51632   6.11636 
 C(Fragment=2)         4.01388   1.01388   4.94359 
 C(Fragment=2)         4.50368   1.50368   6.11636 
 H(Fragment=2)         6.77336   3.77336   4.94326 
 H(Fragment=2)         5.89056   2.89056   7.06253 
 H(Fragment=2)         4.12944   1.12944   7.06253 
 H(Fragment=2)         3.24664   0.24664   4.94326 
 
 ITRead=  0  0  0  0  0  0  0  0  0  0  0  0  0  0  0  0  0  0  0  0
 ITRead=  0  0  0  0  0  0  0  0  0  0  0  0  0  0  0  0  0  0  0  0
 ITRead=  0  0  0  0  0  0  0  0  0  0  0  0  0  0  0  0  0  0  0  0
 ITRead=  0  0  0  0  0  0  0  0  0  0  0  0
 MicOpt= -1 -1 -1 -1 -1 -1 -1 -1 -1 -1 -1 -1 -1 -1 -1 -1 -1 -1 -1 -1
 MicOpt= -1 -1 -1 -1 -1 -1 -1 -1 -1 -1 -1 -1 -1 -1 -1 -1 -1 -1 -1 -1
 MicOpt= -1 -1 -1 -1 -1 -1 -1 -1 -1 -1 -1 -1 -1 -1 -1 -1 -1 -1 -1 -1
 MicOpt= -1 -1 -1 -1 -1 -1 -1 -1 -1 -1 -1 -1
 NAtoms=     72 NQM=       72 NQMF=       0 NMMI=      0 NMMIF=      0
                NMic=       0 NMicF=      0.
                    Isotopes and Nuclear Properties:
 (Nuclear quadrupole moments (NQMom) in fm**2, nuclear magnetic moments (NMagM)
  in nuclear magnetons)

  Atom         1           2           3           4           5           6           7           8           9          10
 IAtWgt=          12          12          12          12          12          12          12          12          12          12
 AtmWgt=  12.0000000  12.0000000  12.0000000  12.0000000  12.0000000  12.0000000  12.0000000  12.0000000  12.0000000  12.0000000
 NucSpn=           0           0           0           0           0           0           0           0           0           0
 AtZEff=   0.0000000   0.0000000   0.0000000   0.0000000   0.0000000   0.0000000   0.0000000   0.0000000   0.0000000   0.0000000
 NQMom=    0.0000000   0.0000000   0.0000000   0.0000000   0.0000000   0.0000000   0.0000000   0.0000000   0.0000000   0.0000000
 NMagM=    0.0000000   0.0000000   0.0000000   0.0000000   0.0000000   0.0000000   0.0000000   0.0000000   0.0000000   0.0000000
 AtZNuc=   6.0000000   6.0000000   6.0000000   6.0000000   6.0000000   6.0000000   6.0000000   6.0000000   6.0000000   6.0000000

  Atom        11          12          13          14          15          16          17          18          19          20
 IAtWgt=           1           1           1           1           1           1          12          12          12          12
 AtmWgt=   1.0078250   1.0078250   1.0078250   1.0078250   1.0078250   1.0078250  12.0000000  12.0000000  12.0000000  12.0000000
 NucSpn=           1           1           1           1           1           1           0           0           0           0
 AtZEff=   0.0000000   0.0000000   0.0000000   0.0000000   0.0000000   0.0000000   0.0000000   0.0000000   0.0000000   0.0000000
 NQMom=    0.0000000   0.0000000   0.0000000   0.0000000   0.0000000   0.0000000   0.0000000   0.0000000   0.0000000   0.0000000
 NMagM=    2.7928460   2.7928460   2.7928460   2.7928460   2.7928460   2.7928460   0.0000000   0.0000000   0.0000000   0.0000000
 AtZNuc=   1.0000000   1.0000000   1.0000000   1.0000000   1.0000000   1.0000000   6.0000000   6.0000000   6.0000000   6.0000000

  Atom        21          22          23          24          25          26          27          28          29          30
 IAtWgt=           1           1          12          12          12          12           1           1          12          12
 AtmWgt=   1.0078250   1.0078250  12.0000000  12.0000000  12.0000000  12.0000000   1.0078250   1.0078250  12.0000000  12.0000000
 NucSpn=           1           1           0           0           0           0           1           1           0           0
 AtZEff=   0.0000000   0.0000000   0.0000000   0.0000000   0.0000000   0.0000000   0.0000000   0.0000000   0.0000000   0.0000000
 NQMom=    0.0000000   0.0000000   0.0000000   0.0000000   0.0000000   0.0000000   0.0000000   0.0000000   0.0000000   0.0000000
 NMagM=    2.7928460   2.7928460   0.0000000   0.0000000   0.0000000   0.0000000   2.7928460   2.7928460   0.0000000   0.0000000
 AtZNuc=   1.0000000   1.0000000   6.0000000   6.0000000   6.0000000   6.0000000   1.0000000   1.0000000   6.0000000   6.0000000

  Atom        31          32          33          34          35          36          37          38          39          40
 IAtWgt=          12          12           1           1           1           1          12          12          12          12
 AtmWgt=  12.0000000  12.0000000   1.0078250   1.0078250   1.0078250   1.0078250  12.0000000  12.0000000  12.0000000  12.0000000
 NucSpn=           0           0           1           1           1           1           0           0           0           0
 AtZEff=   0.0000000   0.0000000   0.0000000   0.0000000   0.0000000   0.0000000   0.0000000   0.0000000   0.0000000   0.0000000
 NQMom=    0.0000000   0.0000000   0.0000000   0.0000000   0.0000000   0.0000000   0.0000000   0.0000000   0.0000000   0.0000000
 NMagM=    0.0000000   0.0000000   2.7928460   2.7928460   2.7928460   2.7928460   0.0000000   0.0000000   0.0000000   0.0000000
 AtZNuc=   6.0000000   6.0000000   1.0000000   1.0000000   1.0000000   1.0000000   6.0000000   6.0000000   6.0000000   6.0000000

  Atom        41          42          43          44          45          46          47          48          49          50
 IAtWgt=          12          12          12          12          12          12           1           1           1           1
 AtmWgt=  12.0000000  12.0000000  12.0000000  12.0000000  12.0000000  12.0000000   1.0078250   1.0078250   1.0078250   1.0078250
 NucSpn=           0           0           0           0           0           0           1           1           1           1
 AtZEff=   0.0000000   0.0000000   0.0000000   0.0000000   0.0000000   0.0000000   0.0000000   0.0000000   0.0000000   0.0000000
 NQMom=    0.0000000   0.0000000   0.0000000   0.0000000   0.0000000   0.0000000   0.0000000   0.0000000   0.0000000   0.0000000
 NMagM=    0.0000000   0.0000000   0.0000000   0.0000000   0.0000000   0.0000000   2.7928460   2.7928460   2.7928460   2.7928460
 AtZNuc=   6.0000000   6.0000000   6.0000000   6.0000000   6.0000000   6.0000000   1.0000000   1.0000000   1.0000000   1.0000000

  Atom        51          52          53          54          55          56          57          58          59          60
 IAtWgt=           1           1          12          12          12          12           1           1          12          12
 AtmWgt=   1.0078250   1.0078250  12.0000000  12.0000000  12.0000000  12.0000000   1.0078250   1.0078250  12.0000000  12.0000000
 NucSpn=           1           1           0           0           0           0           1           1           0           0
 AtZEff=   0.0000000   0.0000000   0.0000000   0.0000000   0.0000000   0.0000000   0.0000000   0.0000000   0.0000000   0.0000000
 NQMom=    0.0000000   0.0000000   0.0000000   0.0000000   0.0000000   0.0000000   0.0000000   0.0000000   0.0000000   0.0000000
 NMagM=    2.7928460   2.7928460   0.0000000   0.0000000   0.0000000   0.0000000   2.7928460   2.7928460   0.0000000   0.0000000
 AtZNuc=   1.0000000   1.0000000   6.0000000   6.0000000   6.0000000   6.0000000   1.0000000   1.0000000   6.0000000   6.0000000

  Atom        61          62          63          64          65          66          67          68          69          70
 IAtWgt=          12          12           1           1          12          12          12          12           1           1
 AtmWgt=  12.0000000  12.0000000   1.0078250   1.0078250  12.0000000  12.0000000  12.0000000  12.0000000   1.0078250   1.0078250
 NucSpn=           0           0           1           1           0           0           0           0           1           1
 AtZEff=   0.0000000   0.0000000   0.0000000   0.0000000   0.0000000   0.0000000   0.0000000   0.0000000   0.0000000   0.0000000
 NQMom=    0.0000000   0.0000000   0.0000000   0.0000000   0.0000000   0.0000000   0.0000000   0.0000000   0.0000000   0.0000000
 NMagM=    0.0000000   0.0000000   2.7928460   2.7928460   0.0000000   0.0000000   0.0000000   0.0000000   2.7928460   2.7928460
 AtZNuc=   6.0000000   6.0000000   1.0000000   1.0000000   6.0000000   6.0000000   6.0000000   6.0000000   1.0000000   1.0000000

  Atom        71          72
 IAtWgt=           1           1
 AtmWgt=   1.0078250   1.0078250
 NucSpn=           1           1
 AtZEff=   0.0000000   0.0000000
 NQMom=    0.0000000   0.0000000
 NMagM=    2.7928460   2.7928460
 AtZNuc=   1.0000000   1.0000000
 Leave Link  101 at Wed Sep 27 16:58:00 2023, MaxMem=  3221225472 cpu:               2.5 elap:               0.1
 (Enter /home/center/opt/aarch64/apps/gaussian16/c01/g16/l202.exe)
 Stoichiometry    C44H28
 Framework group  CS[SG(C4H4),X(C40H24)]
 Deg. of freedom   109
 Full point group                 CS      NOp   2
 Largest Abelian subgroup         CS      NOp   2
 Largest concise Abelian subgroup CS      NOp   2
                         Standard orientation:                         
 ---------------------------------------------------------------------
 Center     Atomic      Atomic             Coordinates (Angstroms)
 Number     Number       Type             X           Y           Z
 ---------------------------------------------------------------------
      1          6           0        1.787492   -2.474874    3.671276
      2          6           0        0.333828   -2.474874    3.671276
      3          6           0        2.469393   -2.474874    4.933593
      4          6           0       -0.348073   -2.474874    4.933593
      5          6           0        1.776707   -2.474874    6.106357
      6          6           0        0.344613   -2.474874    6.106357
      7          6           0        2.467051   -2.474874    2.463318
      8          6           0        1.788257   -2.474874    1.224029
      9          6           0       -0.345731   -2.474874    2.463317
     10          6           0        0.333064   -2.474874    1.224029
     11          1           0        3.554422   -2.474874    4.933260
     12          1           0        3.552769   -2.474874    2.463929
     13          1           0       -1.431447   -2.474874    2.463929
     14          1           0       -1.433102   -2.474874    4.933260
     15          1           0       -0.184635   -2.474874    7.052528
     16          1           0        2.305955   -2.474874    7.052528
     17          6           0        2.467546   -2.474874    0.000000
     18          6           0        1.788257   -2.474874   -1.224029
     19          6           0       -0.346226   -2.474874    0.000000
     20          6           0        0.333064   -2.474874   -1.224029
     21          1           0        3.553169   -2.474874    0.000000
     22          1           0       -1.431847   -2.474874    0.000000
     23          6           0        2.467051   -2.474874   -2.463318
     24          6           0        1.787492   -2.474874   -3.671276
     25          6           0       -0.345731   -2.474874   -2.463317
     26          6           0        0.333828   -2.474874   -3.671276
     27          1           0        3.552769   -2.474874   -2.463929
     28          1           0       -1.431447   -2.474874   -2.463929
     29          6           0        2.469393   -2.474874   -4.933593
     30          6           0        1.776707   -2.474874   -6.106357
     31          6           0       -0.348073   -2.474874   -4.933593
     32          6           0        0.344613   -2.474874   -6.106357
     33          1           0        3.554422   -2.474874   -4.933260
     34          1           0        2.305955   -2.474874   -7.052528
     35          1           0       -0.184635   -2.474874   -7.052528
     36          1           0       -1.433102   -2.474874   -4.933260
     37          6           0       -1.060660    3.201706    3.671276
     38          6           0       -1.060660    1.748042    3.671276
     39          6           0       -1.060660    3.883607    4.933593
     40          6           0       -1.060660    1.066140    4.933593
     41          6           0       -1.060660    3.190920    6.106357
     42          6           0       -1.060660    1.758827    6.106357
     43          6           0       -1.060660    3.881265    2.463318
     44          6           0       -1.060660    3.202470    1.224029
     45          6           0       -1.060660    1.068483    2.463317
     46          6           0       -1.060660    1.747277    1.224029
     47          1           0       -1.060660    4.968636    4.933260
     48          1           0       -1.060660    4.966982    2.463929
     49          1           0       -1.060660   -0.017233    2.463929
     50          1           0       -1.060660   -0.018888    4.933260
     51          1           0       -1.060660    1.229578    7.052528
     52          1           0       -1.060660    3.720169    7.052528
     53          6           0       -1.060660    3.881760    0.000000
     54          6           0       -1.060660    3.202470   -1.224029
     55          6           0       -1.060660    1.067988    0.000000
     56          6           0       -1.060660    1.747277   -1.224029
     57          1           0       -1.060660    4.967383    0.000000
     58          1           0       -1.060660   -0.017634    0.000000
     59          6           0       -1.060660    3.881265   -2.463318
     60          6           0       -1.060660    3.201706   -3.671276
     61          6           0       -1.060660    1.068483   -2.463317
     62          6           0       -1.060660    1.748042   -3.671276
     63          1           0       -1.060660    4.966982   -2.463929
     64          1           0       -1.060660   -0.017233   -2.463929
     65          6           0       -1.060660    3.883607   -4.933593
     66          6           0       -1.060660    3.190920   -6.106357
     67          6           0       -1.060660    1.066140   -4.933593
     68          6           0       -1.060660    1.758827   -6.106357
     69          1           0       -1.060660    4.968636   -4.933260
     70          1           0       -1.060660    3.720169   -7.052528
     71          1           0       -1.060660    1.229578   -7.052528
     72          1           0       -1.060660   -0.018888   -4.933260
 ---------------------------------------------------------------------
 Rotational constants (GHZ):           0.1053638           0.0563744           0.0388834
 Leave Link  202 at Wed Sep 27 16:58:02 2023, MaxMem=  3221225472 cpu:               0.7 elap:               0.0
 (Enter /home/center/opt/aarch64/apps/gaussian16/c01/g16/l122.exe)
 Counterpoise: doing full-system calculation.
 Leave Link  122 at Wed Sep 27 16:58:04 2023, MaxMem=  3221225472 cpu:               0.2 elap:               0.0
 (Enter /home/center/opt/aarch64/apps/gaussian16/c01/g16/l301.exe)
 Standard basis: 6-311G(d,p) (5D, 7F)
 Ernie: Thresh=  0.10000D-02 Tol=  0.10000D-05 Strict=F.
 There are   528 symmetry adapted cartesian basis functions of A'  symmetry.
 There are   476 symmetry adapted cartesian basis functions of A"  symmetry.
 There are   504 symmetry adapted basis functions of A'  symmetry.
 There are   456 symmetry adapted basis functions of A"  symmetry.
   960 basis functions,  1632 primitive gaussians,  1004 cartesian basis functions
   146 alpha electrons      146 beta electrons
       nuclear repulsion energy      4615.2079598526 Hartrees.
 IExCor=  402 DFT=T Ex+Corr=B3LYP ExCW=0 ScaHFX=  0.200000
 ScaDFX=  0.800000  0.720000  1.000000  0.810000 ScalE2=  1.000000  1.000000
 IRadAn=      5 IRanWt=     -1 IRanGd=            0 ICorTp=0 IEmpDi=131
 NAtoms=   72 NActive=   72 NUniq=   40 SFac= 3.24D+00 NAtFMM=   60 NAOKFM=T Big=F
 Integral buffers will be    131072 words long.
 Raffenetti 2 integral format.
 Two-electron integral symmetry is turned on.
 R6Disp:  Grimme-D3 Dispersion energy=       -0.0805529156 Hartrees.
 Nuclear repulsion after empirical dispersion term =     4615.1274069370 Hartrees.
 Leave Link  301 at Wed Sep 27 16:58:07 2023, MaxMem=  3221225472 cpu:               2.0 elap:               0.1
 (Enter /home/center/opt/aarch64/apps/gaussian16/c01/g16/l302.exe)
 NPDir=0 NMtPBC=     1 NCelOv=     1 NCel=       1 NClECP=     1 NCelD=      1
         NCelK=      1 NCelE2=     1 NClLst=     1 CellRange=     0.0.
 One-electron integrals computed using PRISM.
 One-electron integral symmetry used in STVInt
 NBasis=   960 RedAO= T EigKep=  3.83D-05  NBF=   504   456
 NBsUse=   960 1.00D-06 EigRej= -1.00D+00 NBFU=   504   456
 Precomputing XC quadrature grid using
 IXCGrd= 4 IRadAn=           5 IRanWt=          -1 IRanGd=           0 AccXCQ= 0.00D+00.
 Generated NRdTot=       0 NPtTot=           0 NUsed=           0 NTot=          32
 NSgBfM=   989   989   989   989   989 MxSgAt=    72 MxSgA2=    72.
 Leave Link  302 at Wed Sep 27 16:58:11 2023, MaxMem=  3221225472 cpu:              64.2 elap:               1.9
 (Enter /home/center/opt/aarch64/apps/gaussian16/c01/g16/l303.exe)
 DipDrv:  MaxL=1.
 Leave Link  303 at Wed Sep 27 16:58:14 2023, MaxMem=  3221225472 cpu:              10.0 elap:               0.5
 (Enter /home/center/opt/aarch64/apps/gaussian16/c01/g16/l401.exe)
 ExpMin= 1.03D-01 ExpMax= 4.56D+03 ExpMxC= 6.82D+02 IAcc=3 IRadAn=         5 AccDes= 0.00D+00
 Harris functional with IExCor=  402 and IRadAn=       5 diagonalized for initial guess.
 HarFok:  IExCor=  402 AccDes= 0.00D+00 IRadAn=         5 IDoV= 1 UseB2=F ITyADJ=14
 ICtDFT=  3500011 ScaDFX=  1.000000  1.000000  1.000000  1.000000
 FoFCou: FMM=F IPFlag=           0 FMFlag=      100000 FMFlg1=        2000
         NFxFlg=           0 DoJE=T BraDBF=F KetDBF=T FulRan=T
         wScrn=  0.000000 ICntrl=       500 IOpCl=  0 I1Cent=   200000004 NGrid=           0
         NMat0=    1 NMatS0=      1 NMatT0=    0 NMatD0=    1 NMtDS0=    0 NMtDT0=    0
 Petite list used in FoFCou.
 Harris En= -1694.13408589444    
 JPrj=0 DoOrth=F DoCkMO=F.
 Initial guess orbital symmetries:
       Occupied  (A") (A') (A") (A') (A") (A') (A') (A") (A") (A')
                 (A") (A') (A") (A') (A") (A') (A") (A') (A') (A")
                 (A') (A") (A') (A") (A') (A') (A') (A') (A") (A')
                 (A") (A') (A") (A') (A") (A') (A") (A') (A") (A')
                 (A") (A') (A') (A") (A') (A') (A") (A") (A') (A')
                 (A") (A") (A') (A') (A') (A') (A") (A") (A') (A')
                 (A") (A") (A") (A") (A') (A') (A') (A') (A") (A")
                 (A") (A") (A') (A') (A") (A') (A") (A') (A') (A')
                 (A') (A') (A") (A") (A") (A") (A') (A") (A") (A')
                 (A') (A') (A") (A") (A') (A') (A') (A") (A') (A")
                 (A') (A') (A") (A") (A") (A") (A') (A') (A') (A")
                 (A") (A') (A') (A') (A") (A") (A') (A') (A") (A")
                 (A") (A") (A') (A') (A') (A') (A") (A") (A') (A')
                 (A") (A") (A') (A') (A") (A") (A') (A') (A') (A')
                 (A") (A") (A") (A") (A') (A')
       Virtual   (A') (A') (A") (A") (A") (A") (A') (A') (A') (A')
                 (A") (A") (A') (A') (A") (A") (A') (A") (A') (A')
                 (A') (A') (A") (A") (A') (A') (A") (A") (A') (A')
                 (A") (A') (A") (A") (A") (A') (A") (A') (A') (A')
                 (A") (A") (A') (A') (A") (A') (A") (A') (A') (A')
                 (A") (A') (A') (A") (A') (A') (A") (A') (A") (A")
                 (A') (A") (A") (A") (A') (A') (A") (A") (A") (A')
                 (A') (A") (A') (A') (A") (A') (A") (A") (A') (A")
                 (A') (A') (A') (A") (A') (A") (A') (A') (A") (A')
                 (A') (A") (A") (A") (A') (A") (A') (A') (A") (A")
                 (A') (A") (A') (A") (A') (A") (A') (A') (A') (A')
                 (A") (A') (A") (A') (A") (A') (A') (A") (A') (A")
                 (A") (A') (A") (A') (A") (A') (A") (A") (A') (A")
                 (A') (A") (A') (A") (A") (A') (A') (A") (A') (A")
                 (A') (A') (A") (A') (A") (A') (A') (A') (A') (A')
                 (A") (A") (A") (A') (A") (A') (A') (A') (A") (A")
                 (A") (A') (A") (A") (A') (A') (A") (A") (A') (A')
                 (A") (A') (A') (A') (A") (A") (A') (A") (A') (A")
                 (A") (A') (A') (A') (A") (A') (A") (A') (A") (A')
                 (A") (A') (A') (A") (A") (A') (A') (A') (A") (A')
                 (A") (A") (A') (A") (A') (A") (A') (A') (A') (A")
                 (A") (A') (A") (A") (A') (A") (A') (A") (A") (A')
                 (A') (A") (A") (A') (A') (A") (A") (A') (A') (A")
                 (A') (A') (A") (A') (A") (A') (A') (A") (A") (A")
                 (A') (A') (A") (A') (A") (A") (A') (A') (A') (A')
                 (A") (A") (A") (A') (A") (A') (A') (A") (A') (A")
                 (A') (A') (A") (A") (A') (A") (A") (A') (A") (A')
                 (A") (A') (A') (A") (A") (A') (A") (A") (A') (A')
                 (A") (A') (A") (A') (A') (A') (A") (A') (A") (A')
                 (A") (A') (A") (A") (A') (A") (A") (A") (A') (A")
                 (A") (A') (A') (A') (A") (A') (A') (A') (A") (A')
                 (A") (A") (A') (A") (A") (A') (A") (A') (A') (A')
                 (A") (A') (A") (A') (A') (A') (A") (A") (A') (A")
                 (A") (A") (A') (A") (A') (A') (A") (A') (A") (A')
                 (A') (A") (A') (A") (A') (A") (A') (A") (A') (A')
                 (A") (A") (A') (A") (A') (A') (A") (A') (A') (A')
                 (A') (A") (A') (A") (A") (A') (A") (A") (A") (A")
                 (A") (A') (A') (A") (A") (A") (A') (A') (A') (A')
                 (A") (A') (A') (A') (A') (A") (A') (A") (A') (A")
                 (A') (A") (A') (A") (A') (A") (A") (A") (A') (A')
                 (A") (A') (A') (A") (A") (A') (A') (A") (A") (A')
                 (A") (A') (A') (A') (A") (A') (A') (A") (A") (A')
                 (A') (A') (A') (A") (A") (A') (A") (A') (A') (A")
                 (A") (A") (A") (A') (A") (A') (A") (A") (A') (A")
                 (A') (A") (A') (A") (A") (A') (A') (A") (A') (A")
                 (A') (A') (A') (A") (A") (A') (A') (A") (A") (A')
                 (A') (A") (A') (A") (A") (A") (A') (A") (A') (A')
                 (A') (A") (A") (A") (A') (A") (A') (A') (A') (A")
                 (A") (A') (A') (A') (A") (A") (A') (A") (A") (A')
                 (A") (A") (A') (A") (A") (A") (A") (A') (A') (A")
                 (A') (A") (A') (A') (A") (A') (A') (A') (A") (A')
                 (A") (A') (A') (A") (A") (A') (A") (A') (A") (A')
                 (A") (A') (A") (A') (A") (A") (A') (A") (A') (A')
                 (A') (A') (A") (A") (A") (A") (A') (A') (A") (A')
                 (A") (A") (A') (A') (A') (A") (A") (A') (A") (A")
                 (A') (A") (A') (A") (A') (A") (A') (A") (A') (A')
                 (A") (A") (A') (A') (A') (A") (A') (A") (A') (A")
                 (A') (A") (A") (A') (A") (A') (A") (A') (A") (A')
                 (A') (A') (A') (A") (A") (A") (A') (A') (A') (A')
                 (A") (A') (A') (A") (A") (A') (A") (A') (A') (A")
                 (A') (A") (A") (A') (A") (A') (A") (A") (A') (A')
                 (A') (A") (A") (A') (A') (A") (A") (A') (A") (A")
                 (A') (A') (A") (A') (A") (A') (A") (A') (A') (A')
                 (A") (A') (A") (A') (A") (A') (A") (A") (A') (A")
                 (A') (A") (A") (A") (A') (A') (A") (A') (A') (A')
                 (A') (A") (A') (A') (A") (A') (A") (A') (A') (A")
                 (A') (A") (A") (A") (A') (A') (A") (A') (A") (A')
                 (A') (A") (A") (A') (A") (A') (A") (A") (A') (A')
                 (A") (A') (A") (A') (A') (A") (A') (A") (A") (A")
                 (A') (A') (A') (A") (A') (A") (A') (A") (A") (A')
                 (A') (A") (A') (A") (A') (A") (A') (A") (A') (A")
                 (A') (A") (A") (A") (A') (A') (A') (A") (A') (A")
                 (A') (A') (A") (A") (A') (A') (A") (A') (A") (A')
                 (A") (A') (A') (A") (A") (A') (A") (A') (A') (A')
                 (A") (A") (A') (A") (A') (A") (A') (A') (A') (A')
                 (A") (A') (A") (A') (A") (A") (A') (A') (A") (A")
                 (A") (A') (A") (A') (A") (A") (A') (A") (A') (A")
                 (A') (A') (A") (A") (A') (A') (A') (A') (A") (A")
                 (A") (A") (A') (A') (A") (A") (A') (A') (A') (A')
                 (A") (A") (A") (A") (A') (A') (A') (A') (A") (A")
                 (A') (A') (A") (A") (A') (A') (A") (A') (A") (A')
                 (A') (A") (A') (A")
 The electronic state of the initial guess is 1-A'.
 Leave Link  401 at Wed Sep 27 16:58:19 2023, MaxMem=  3221225472 cpu:             105.4 elap:               2.6
 (Enter /home/center/opt/aarch64/apps/gaussian16/c01/g16/l502.exe)
 Integral symmetry usage will be decided dynamically.
 Closed shell SCF:
 Using DIIS extrapolation, IDIIS=  1040.
 NGot=  3221225472 LenX=  3219153746 LenY=  3218144726
 Requested convergence on RMS density matrix=1.00D-08 within 128 cycles.
 Requested convergence on MAX density matrix=1.00D-06.
 Requested convergence on             energy=1.00D-06.
 No special actions if energy rises.
 Fock matrices will be formed incrementally for  20 cycles.
 Integral accuracy reduced to 1.0D-05 until final iterations.

 Cycle   1  Pass 0  IDiag  1:
 FoFJK:  IHMeth= 1 ICntrl=       0 DoSepK=F KAlg= 0 I1Cent=           0 FoldK=F
 IRaf= 550000000 NMat=       1 IRICut=       1 DoRegI=T DoRafI=F ISym2E= 1 IDoP0=0 IntGTp=1.
 FoFCou: FMM=F IPFlag=           0 FMFlag=      100000 FMFlg1=        2000
         NFxFlg=           0 DoJE=F BraDBF=F KetDBF=F FulRan=T
         wScrn=  0.000000 ICntrl=         0 IOpCl=  0 I1Cent=           0 NGrid=           0
         NMat0=    1 NMatS0=      1 NMatT0=    0 NMatD0=    1 NMtDS0=    0 NMtDT0=    0
 Petite list used in FoFCou.
 E= -1693.16553848921    
 DIIS: error= 4.24D-02 at cycle   1 NSaved=   1.
 NSaved= 1 IEnMin= 1 EnMin= -1693.16553848921     IErMin= 1 ErrMin= 4.24D-02
 ErrMax= 4.24D-02  0.00D+00 EMaxC= 1.00D-01 BMatC= 9.01D-01 BMatP= 9.01D-01
 IDIUse=3 WtCom= 5.76D-01 WtEn= 4.24D-01
 Coeff-Com:  0.100D+01
 Coeff-En:   0.100D+01
 Coeff:      0.100D+01
 Gap=     0.068 Goal=   None    Shift=    0.000
 GapD=    0.068 DampG=0.500 DampE=0.500 DampFc=0.2500 IDamp=-1.
 Damping current iteration by 2.50D-01
 RMSDP=1.75D-03 MaxDP=8.41D-02              OVMax= 1.56D-01

 Cycle   2  Pass 0  IDiag  1:
 RMSU=  4.24D-04    CP:  9.82D-01
 E= -1693.47529905500     Delta-E=       -0.309760565786 Rises=F Damp=T
 DIIS: error= 2.49D-02 at cycle   2 NSaved=   2.
 NSaved= 2 IEnMin= 2 EnMin= -1693.47529905500     IErMin= 2 ErrMin= 2.49D-02
 ErrMax= 2.49D-02  0.00D+00 EMaxC= 1.00D-01 BMatC= 2.99D-01 BMatP= 9.01D-01
 IDIUse=3 WtCom= 7.51D-01 WtEn= 2.49D-01
 Coeff-Com: -0.120D+01 0.220D+01
 Coeff-En:   0.000D+00 0.100D+01
 Coeff:     -0.903D+00 0.190D+01
 Gap=     0.064 Goal=   None    Shift=    0.000
 RMSDP=7.23D-04 MaxDP=3.31D-02 DE=-3.10D-01 OVMax= 8.12D-02

 Cycle   3  Pass 0  IDiag  1:
 RMSU=  5.10D-04    CP:  9.56D-01  2.15D+00
 E= -1694.04173878469     Delta-E=       -0.566439729698 Rises=F Damp=F
 DIIS: error= 4.85D-03 at cycle   3 NSaved=   3.
 NSaved= 3 IEnMin= 3 EnMin= -1694.04173878469     IErMin= 3 ErrMin= 4.85D-03
 ErrMax= 4.85D-03  0.00D+00 EMaxC= 1.00D-01 BMatC= 1.19D-02 BMatP= 2.99D-01
 IDIUse=3 WtCom= 9.52D-01 WtEn= 4.85D-02
 Coeff-Com: -0.275D+00 0.552D+00 0.723D+00
 Coeff-En:   0.000D+00 0.000D+00 0.100D+01
 Coeff:     -0.262D+00 0.525D+00 0.737D+00
 Gap=     0.069 Goal=   None    Shift=    0.000
 RMSDP=2.40D-04 MaxDP=1.18D-02 DE=-5.66D-01 OVMax= 7.96D-02

 Cycle   4  Pass 0  IDiag  1:
 RMSU=  2.02D-04    CP:  9.58D-01  2.10D+00  7.50D-01
 E= -1694.03823653079     Delta-E=        0.003502253908 Rises=F Damp=F
 DIIS: error= 7.07D-03 at cycle   4 NSaved=   4.
 NSaved= 4 IEnMin= 3 EnMin= -1694.04173878469     IErMin= 3 ErrMin= 4.85D-03
 ErrMax= 7.07D-03  0.00D+00 EMaxC= 1.00D-01 BMatC= 1.33D-02 BMatP= 1.19D-02
 IDIUse=3 WtCom= 1.06D-01 WtEn= 8.94D-01
 Coeff-Com: -0.569D-01 0.134D+00 0.512D+00 0.412D+00
 Coeff-En:   0.000D+00 0.000D+00 0.552D+00 0.448D+00
 Coeff:     -0.604D-02 0.142D-01 0.547D+00 0.444D+00
 Gap=     0.066 Goal=   None    Shift=    0.000
 RMSDP=1.43D-04 MaxDP=8.15D-03 DE= 3.50D-03 OVMax= 6.80D-02

 Cycle   5  Pass 0  IDiag  1:
 RMSU=  8.20D-05    CP:  9.57D-01  2.10D+00  7.94D-01  4.33D-01
 E= -1694.05295026374     Delta-E=       -0.014713732960 Rises=F Damp=F
 DIIS: error= 1.74D-03 at cycle   5 NSaved=   5.
 NSaved= 5 IEnMin= 5 EnMin= -1694.05295026374     IErMin= 5 ErrMin= 1.74D-03
 ErrMax= 1.74D-03  0.00D+00 EMaxC= 1.00D-01 BMatC= 1.02D-03 BMatP= 1.19D-02
 IDIUse=3 WtCom= 9.83D-01 WtEn= 1.74D-02
 Coeff-Com: -0.161D-01 0.350D-01 0.245D+00 0.252D+00 0.484D+00
 Coeff-En:   0.000D+00 0.000D+00 0.000D+00 0.324D-01 0.968D+00
 Coeff:     -0.159D-01 0.344D-01 0.241D+00 0.248D+00 0.492D+00
 Gap=     0.066 Goal=   None    Shift=    0.000
 RMSDP=4.87D-05 MaxDP=3.09D-03 DE=-1.47D-02 OVMax= 2.82D-02

 Cycle   6  Pass 0  IDiag  1:
 RMSU=  2.26D-05    CP:  9.57D-01  2.10D+00  8.14D-01  5.23D-01  5.42D-01
 E= -1694.05391166340     Delta-E=       -0.000961399651 Rises=F Damp=F
 DIIS: error= 1.07D-03 at cycle   6 NSaved=   6.
 NSaved= 6 IEnMin= 6 EnMin= -1694.05391166340     IErMin= 6 ErrMin= 1.07D-03
 ErrMax= 1.07D-03  0.00D+00 EMaxC= 1.00D-01 BMatC= 2.15D-04 BMatP= 1.02D-03
 IDIUse=3 WtCom= 9.89D-01 WtEn= 1.07D-02
 Coeff-Com: -0.217D-02 0.368D-02 0.992D-01 0.117D+00 0.346D+00 0.437D+00
 Coeff-En:   0.000D+00 0.000D+00 0.000D+00 0.000D+00 0.181D+00 0.819D+00
 Coeff:     -0.215D-02 0.364D-02 0.982D-01 0.116D+00 0.344D+00 0.441D+00
 Gap=     0.066 Goal=   None    Shift=    0.000
 RMSDP=1.81D-05 MaxDP=1.57D-03 DE=-9.61D-04 OVMax= 1.33D-02

 Cycle   7  Pass 0  IDiag  1:
 RMSU=  8.95D-06    CP:  9.57D-01  2.11D+00  8.17D-01  5.06D-01  6.15D-01
                    CP:  3.80D-01
 E= -1694.05414082496     Delta-E=       -0.000229161566 Rises=F Damp=F
 DIIS: error= 3.56D-04 at cycle   7 NSaved=   7.
 NSaved= 7 IEnMin= 7 EnMin= -1694.05414082496     IErMin= 7 ErrMin= 3.56D-04
 ErrMax= 3.56D-04  0.00D+00 EMaxC= 1.00D-01 BMatC= 2.07D-05 BMatP= 2.15D-04
 IDIUse=3 WtCom= 9.96D-01 WtEn= 3.56D-03
 Coeff-Com:  0.137D-04-0.376D-03 0.546D-01 0.654D-01 0.210D+00 0.308D+00
 Coeff-Com:  0.362D+00
 Coeff-En:   0.000D+00 0.000D+00 0.000D+00 0.000D+00 0.000D+00 0.479D-01
 Coeff-En:   0.952D+00
 Coeff:      0.137D-04-0.375D-03 0.544D-01 0.652D-01 0.209D+00 0.307D+00
 Coeff:      0.364D+00
 Gap=     0.066 Goal=   None    Shift=    0.000
 RMSDP=6.07D-06 MaxDP=3.90D-04 DE=-2.29D-04 OVMax= 3.53D-03

 Initial convergence to 1.0D-05 achieved.  Increase integral accuracy.
 Cycle   8  Pass 1  IDiag  1:
 E= -1694.05380824939     Delta-E=        0.000332575575 Rises=F Damp=F
 DIIS: error= 1.04D-03 at cycle   1 NSaved=   1.
 NSaved= 1 IEnMin= 1 EnMin= -1694.05380824939     IErMin= 1 ErrMin= 1.04D-03
 ErrMax= 1.04D-03  0.00D+00 EMaxC= 1.00D-01 BMatC= 4.88D-05 BMatP= 4.88D-05
 IDIUse=3 WtCom= 9.90D-01 WtEn= 1.04D-02
 Coeff-Com:  0.100D+01
 Coeff-En:   0.100D+01
 Coeff:      0.100D+01
 Gap=     0.066 Goal=   None    Shift=    0.000
 RMSDP=6.07D-06 MaxDP=3.90D-04 DE= 3.33D-04 OVMax= 2.79D-03

 Cycle   9  Pass 1  IDiag  1:
 RMSU=  3.86D-04    CP:  9.97D-01
 E= -1694.05384866285     Delta-E=       -0.000040413461 Rises=F Damp=F
 DIIS: error= 2.25D-04 at cycle   2 NSaved=   2.
 NSaved= 2 IEnMin= 2 EnMin= -1694.05384866285     IErMin= 2 ErrMin= 2.25D-04
 ErrMax= 2.25D-04  0.00D+00 EMaxC= 1.00D-01 BMatC= 6.83D-06 BMatP= 4.88D-05
 IDIUse=3 WtCom= 9.98D-01 WtEn= 2.25D-03
 Coeff-Com:  0.149D+00 0.851D+00
 Coeff-En:   0.000D+00 0.100D+01
 Coeff:      0.149D+00 0.851D+00
 Gap=     0.066 Goal=   None    Shift=    0.000
 RMSDP=1.08D-05 MaxDP=5.82D-04 DE=-4.04D-05 OVMax= 5.54D-03

 Cycle  10  Pass 1  IDiag  1:
 RMSU=  1.00D-05    CP:  9.97D-01  1.01D+00
 E= -1694.05381013303     Delta-E=        0.000038529814 Rises=F Damp=F
 DIIS: error= 5.52D-04 at cycle   3 NSaved=   3.
 NSaved= 3 IEnMin= 2 EnMin= -1694.05384866285     IErMin= 2 ErrMin= 2.25D-04
 ErrMax= 5.52D-04  0.00D+00 EMaxC= 1.00D-01 BMatC= 3.71D-05 BMatP= 6.83D-06
 IDIUse=3 WtCom= 2.98D-01 WtEn= 7.02D-01
 Coeff-Com: -0.122D-02 0.702D+00 0.299D+00
 Coeff-En:   0.000D+00 0.772D+00 0.228D+00
 Coeff:     -0.363D-03 0.751D+00 0.249D+00
 Gap=     0.066 Goal=   None    Shift=    0.000
 RMSDP=5.65D-06 MaxDP=3.33D-04 DE= 3.85D-05 OVMax= 3.25D-03

 Cycle  11  Pass 1  IDiag  1:
 RMSU=  1.12D-06    CP:  9.97D-01  1.01D+00  4.49D-01
 E= -1694.05385529854     Delta-E=       -0.000045165511 Rises=F Damp=F
 DIIS: error= 9.58D-05 at cycle   4 NSaved=   4.
 NSaved= 4 IEnMin= 4 EnMin= -1694.05385529854     IErMin= 4 ErrMin= 9.58D-05
 ErrMax= 9.58D-05  0.00D+00 EMaxC= 1.00D-01 BMatC= 1.54D-06 BMatP= 6.83D-06
 IDIUse=1 WtCom= 1.00D+00 WtEn= 0.00D+00
 Coeff-Com: -0.376D-02 0.454D+00 0.110D+00 0.440D+00
 Coeff:     -0.376D-02 0.454D+00 0.110D+00 0.440D+00
 Gap=     0.066 Goal=   None    Shift=    0.000
 RMSDP=1.38D-06 MaxDP=7.76D-05 DE=-4.52D-05 OVMax= 6.95D-04

 Cycle  12  Pass 1  IDiag  1:
 RMSU=  4.42D-07    CP:  9.97D-01  1.01D+00  3.20D-01  8.40D-01
 E= -1694.05385712639     Delta-E=       -0.000001827841 Rises=F Damp=F
 DIIS: error= 6.10D-06 at cycle   5 NSaved=   5.
 NSaved= 5 IEnMin= 5 EnMin= -1694.05385712639     IErMin= 5 ErrMin= 6.10D-06
 ErrMax= 6.10D-06  0.00D+00 EMaxC= 1.00D-01 BMatC= 5.86D-09 BMatP= 1.54D-06
 IDIUse=1 WtCom= 1.00D+00 WtEn= 0.00D+00
 Coeff-Com: -0.227D-02 0.265D+00 0.609D-01 0.274D+00 0.403D+00
 Coeff:     -0.227D-02 0.265D+00 0.609D-01 0.274D+00 0.403D+00
 Gap=     0.066 Goal=   None    Shift=    0.000
 RMSDP=1.17D-07 MaxDP=4.56D-06 DE=-1.83D-06 OVMax= 3.35D-05

 Cycle  13  Pass 1  IDiag  1:
 RMSU=  1.02D-07    CP:  9.97D-01  1.01D+00  3.20D-01  8.52D-01  8.77D-01
 E= -1694.05385713347     Delta-E=       -0.000000007088 Rises=F Damp=F
 DIIS: error= 1.61D-06 at cycle   6 NSaved=   6.
 NSaved= 6 IEnMin= 6 EnMin= -1694.05385713347     IErMin= 6 ErrMin= 1.61D-06
 ErrMax= 1.61D-06  0.00D+00 EMaxC= 1.00D-01 BMatC= 6.42D-10 BMatP= 5.86D-09
 IDIUse=1 WtCom= 1.00D+00 WtEn= 0.00D+00
 Coeff-Com: -0.921D-03 0.104D+00 0.232D-01 0.112D+00 0.258D+00 0.504D+00
 Coeff:     -0.921D-03 0.104D+00 0.232D-01 0.112D+00 0.258D+00 0.504D+00
 Gap=     0.066 Goal=   None    Shift=    0.000
 RMSDP=2.71D-08 MaxDP=1.65D-06 DE=-7.09D-09 OVMax= 9.84D-06

 Cycle  14  Pass 1  IDiag  1:
 RMSU=  2.32D-08    CP:  9.97D-01  1.01D+00  3.20D-01  8.53D-01  8.92D-01
                    CP:  8.90D-01
 E= -1694.05385713412     Delta-E=       -0.000000000648 Rises=F Damp=F
 DIIS: error= 3.23D-07 at cycle   7 NSaved=   7.
 NSaved= 7 IEnMin= 7 EnMin= -1694.05385713412     IErMin= 7 ErrMin= 3.23D-07
 ErrMax= 3.23D-07  0.00D+00 EMaxC= 1.00D-01 BMatC= 3.40D-11 BMatP= 6.42D-10
 IDIUse=1 WtCom= 1.00D+00 WtEn= 0.00D+00
 Coeff-Com: -0.293D-03 0.326D-01 0.716D-02 0.360D-01 0.103D+00 0.253D+00
 Coeff-Com:  0.569D+00
 Coeff:     -0.293D-03 0.326D-01 0.716D-02 0.360D-01 0.103D+00 0.253D+00
 Coeff:      0.569D+00
 Gap=     0.066 Goal=   None    Shift=    0.000
 RMSDP=1.20D-08 MaxDP=7.40D-07 DE=-6.48D-10 OVMax= 5.89D-06

 Cycle  15  Pass 1  IDiag  1:
 RMSU=  9.09D-09    CP:  9.97D-01  1.01D+00  3.20D-01  8.55D-01  8.94D-01
                    CP:  8.96D-01  7.02D-01
 E= -1694.05385713414     Delta-E=       -0.000000000024 Rises=F Damp=F
 DIIS: error= 2.81D-07 at cycle   8 NSaved=   8.
 NSaved= 8 IEnMin= 8 EnMin= -1694.05385713414     IErMin= 8 ErrMin= 2.81D-07
 ErrMax= 2.81D-07  0.00D+00 EMaxC= 1.00D-01 BMatC= 2.25D-11 BMatP= 3.40D-11
 IDIUse=1 WtCom= 1.00D+00 WtEn= 0.00D+00
 Coeff-Com: -0.195D-04 0.171D-02 0.351D-03 0.252D-02 0.239D-01 0.814D-01
 Coeff-Com:  0.456D+00 0.434D+00
 Coeff:     -0.195D-04 0.171D-02 0.351D-03 0.252D-02 0.239D-01 0.814D-01
 Coeff:      0.456D+00 0.434D+00
 Gap=     0.066 Goal=   None    Shift=    0.000
 RMSDP=5.91D-09 MaxDP=3.59D-07 DE=-2.36D-11 OVMax= 2.92D-06

 SCF Done:  E(RB3LYP) =  -1694.05385713     A.U. after   15 cycles
            NFock= 15  Conv=0.59D-08     -V/T= 2.0043
 KE= 1.686731865864D+03 PE=-1.316074720507D+04 EE= 5.164834075137D+03
 Leave Link  502 at Wed Sep 27 17:00:04 2023, MaxMem=  3221225472 cpu:            3767.6 elap:             103.2
 (Enter /home/center/opt/aarch64/apps/gaussian16/c01/g16/l601.exe)
 Copying SCF densities to generalized density rwf, IOpCl= 0 IROHF=0.

 **********************************************************************

            Population analysis using the SCF Density.

 **********************************************************************

 Orbital symmetries:
       Occupied  (A") (A') (A') (A") (A") (A') (A") (A') (A') (A")
                 (A') (A') (A") (A') (A") (A') (A") (A') (A") (A')
                 (A") (A') (A") (A') (A") (A') (A') (A") (A') (A")
                 (A") (A') (A') (A") (A') (A") (A') (A") (A') (A')
                 (A") (A') (A") (A') (A') (A') (A") (A") (A') (A')
                 (A") (A") (A') (A') (A') (A") (A') (A") (A') (A')
                 (A") (A") (A") (A") (A') (A') (A') (A') (A") (A")
                 (A") (A') (A") (A") (A') (A') (A") (A') (A') (A')
                 (A') (A") (A") (A') (A") (A") (A') (A") (A') (A')
                 (A") (A') (A') (A") (A") (A') (A") (A") (A') (A')
                 (A") (A') (A') (A') (A') (A') (A") (A") (A") (A')
                 (A') (A') (A") (A") (A") (A") (A") (A") (A') (A')
                 (A') (A') (A') (A") (A') (A") (A') (A") (A") (A")
                 (A') (A") (A') (A') (A") (A') (A") (A') (A') (A')
                 (A") (A") (A") (A") (A') (A')
       Virtual   (A') (A') (A") (A") (A") (A") (A') (A') (A') (A")
                 (A') (A') (A") (A') (A") (A') (A') (A') (A") (A")
                 (A') (A') (A") (A") (A') (A") (A') (A") (A") (A')
                 (A") (A') (A") (A') (A') (A") (A') (A") (A") (A')
                 (A') (A') (A') (A") (A') (A") (A") (A") (A') (A")
                 (A') (A') (A') (A') (A") (A') (A') (A') (A") (A')
                 (A") (A") (A") (A") (A') (A') (A") (A') (A") (A")
                 (A') (A') (A") (A') (A") (A') (A") (A") (A') (A")
                 (A') (A') (A') (A') (A') (A") (A') (A") (A') (A")
                 (A") (A') (A') (A') (A") (A") (A") (A') (A') (A")
                 (A') (A') (A") (A") (A") (A') (A') (A') (A") (A")
                 (A") (A") (A') (A') (A") (A') (A") (A") (A') (A')
                 (A') (A") (A') (A') (A') (A') (A") (A') (A") (A')
                 (A") (A') (A') (A") (A") (A') (A') (A') (A") (A')
                 (A") (A') (A") (A') (A") (A") (A') (A") (A") (A')
                 (A") (A") (A') (A') (A") (A') (A") (A') (A') (A')
                 (A") (A") (A') (A") (A') (A') (A") (A") (A') (A")
                 (A') (A") (A') (A') (A") (A') (A') (A") (A") (A')
                 (A") (A') (A") (A') (A') (A") (A") (A') (A") (A')
                 (A") (A') (A") (A') (A') (A") (A') (A") (A") (A')
                 (A") (A') (A") (A') (A") (A') (A') (A') (A") (A')
                 (A') (A") (A") (A") (A') (A') (A') (A") (A") (A")
                 (A') (A") (A") (A") (A') (A') (A') (A") (A') (A")
                 (A') (A') (A") (A') (A") (A') (A") (A") (A') (A")
                 (A') (A') (A") (A") (A') (A') (A') (A") (A') (A')
                 (A") (A") (A") (A') (A') (A") (A") (A') (A") (A')
                 (A') (A") (A") (A') (A') (A") (A') (A') (A") (A')
                 (A") (A") (A") (A') (A") (A') (A') (A") (A") (A')
                 (A') (A') (A") (A") (A') (A') (A") (A") (A') (A")
                 (A') (A') (A") (A") (A") (A') (A") (A') (A") (A')
                 (A') (A") (A') (A") (A") (A") (A') (A') (A') (A')
                 (A") (A') (A") (A') (A') (A") (A") (A') (A") (A")
                 (A') (A") (A') (A') (A') (A") (A') (A") (A') (A")
                 (A") (A") (A') (A") (A') (A") (A') (A") (A') (A')
                 (A') (A") (A') (A') (A") (A') (A") (A') (A") (A")
                 (A') (A") (A") (A') (A') (A') (A') (A') (A") (A')
                 (A') (A") (A") (A') (A") (A') (A") (A") (A") (A')
                 (A") (A") (A") (A') (A') (A") (A') (A") (A') (A')
                 (A") (A') (A') (A") (A') (A") (A') (A') (A') (A")
                 (A') (A") (A') (A") (A') (A") (A") (A") (A') (A')
                 (A") (A") (A') (A') (A") (A') (A') (A") (A") (A')
                 (A") (A') (A') (A") (A') (A') (A") (A') (A') (A")
                 (A') (A') (A") (A') (A") (A') (A") (A') (A") (A')
                 (A") (A") (A") (A') (A") (A') (A') (A") (A') (A")
                 (A') (A") (A") (A") (A') (A") (A') (A") (A') (A')
                 (A") (A') (A") (A') (A") (A') (A') (A") (A") (A')
                 (A") (A") (A') (A') (A") (A') (A") (A') (A') (A")
                 (A') (A") (A") (A') (A") (A") (A') (A') (A") (A')
                 (A') (A") (A') (A") (A') (A") (A') (A") (A') (A")
                 (A") (A") (A") (A') (A") (A") (A") (A') (A") (A')
                 (A") (A') (A') (A') (A') (A") (A') (A') (A") (A")
                 (A') (A') (A") (A') (A") (A') (A') (A") (A") (A')
                 (A") (A') (A") (A") (A') (A') (A') (A") (A") (A")
                 (A') (A") (A') (A") (A') (A") (A") (A') (A') (A')
                 (A") (A') (A") (A') (A") (A') (A") (A") (A') (A")
                 (A') (A") (A") (A') (A') (A') (A") (A") (A') (A")
                 (A') (A') (A') (A") (A") (A') (A") (A') (A") (A')
                 (A") (A') (A') (A') (A') (A") (A') (A") (A') (A")
                 (A") (A") (A') (A') (A") (A') (A") (A') (A") (A')
                 (A") (A") (A") (A') (A') (A') (A") (A') (A") (A')
                 (A') (A") (A') (A') (A") (A') (A') (A") (A') (A")
                 (A") (A') (A') (A") (A') (A') (A") (A") (A') (A')
                 (A") (A') (A") (A') (A") (A") (A") (A') (A") (A')
                 (A') (A") (A') (A') (A") (A') (A') (A") (A") (A")
                 (A') (A") (A') (A") (A') (A") (A') (A') (A') (A')
                 (A") (A") (A') (A') (A") (A') (A") (A') (A") (A')
                 (A") (A") (A') (A") (A') (A") (A') (A') (A") (A')
                 (A') (A") (A") (A') (A") (A') (A") (A") (A') (A')
                 (A') (A') (A") (A") (A') (A") (A') (A") (A") (A")
                 (A') (A') (A") (A') (A') (A') (A") (A") (A') (A")
                 (A') (A') (A") (A") (A') (A") (A') (A") (A') (A")
                 (A') (A") (A") (A") (A') (A') (A') (A") (A') (A")
                 (A') (A") (A') (A') (A") (A') (A') (A") (A") (A')
                 (A") (A') (A') (A") (A") (A') (A') (A") (A') (A")
                 (A') (A") (A') (A") (A') (A') (A") (A') (A') (A')
                 (A") (A') (A") (A") (A') (A") (A') (A') (A") (A")
                 (A") (A') (A") (A") (A') (A') (A") (A") (A') (A")
                 (A') (A') (A") (A") (A') (A') (A') (A') (A") (A")
                 (A") (A") (A') (A') (A") (A') (A") (A') (A') (A')
                 (A") (A") (A") (A") (A') (A') (A") (A') (A') (A")
                 (A') (A") (A') (A') (A") (A") (A') (A') (A") (A')
                 (A') (A") (A') (A")
 The electronic state is 1-A'.
 Alpha  occ. eigenvalues --  -10.19572 -10.19571 -10.19497 -10.19496 -10.19489
 Alpha  occ. eigenvalues --  -10.19489 -10.19381 -10.19381 -10.18619 -10.18551
 Alpha  occ. eigenvalues --  -10.18551 -10.18532 -10.18506 -10.18506 -10.18499
 Alpha  occ. eigenvalues --  -10.18499 -10.18418 -10.18418 -10.18390 -10.18390
 Alpha  occ. eigenvalues --  -10.18284 -10.18284 -10.18107 -10.18107 -10.18060
 Alpha  occ. eigenvalues --  -10.18060 -10.18022 -10.18021 -10.17952 -10.17952
 Alpha  occ. eigenvalues --  -10.17186 -10.17186 -10.17119 -10.17114 -10.17114
 Alpha  occ. eigenvalues --  -10.17112 -10.17112 -10.17044 -10.17044 -10.16972
 Alpha  occ. eigenvalues --  -10.16941 -10.16941 -10.16886 -10.16886  -0.89964
 Alpha  occ. eigenvalues --   -0.88511  -0.88473  -0.87061  -0.86150  -0.84757
 Alpha  occ. eigenvalues --   -0.83012  -0.81629  -0.80471  -0.79115  -0.78971
 Alpha  occ. eigenvalues --   -0.78948  -0.77739  -0.77491  -0.76616  -0.75179
 Alpha  occ. eigenvalues --   -0.74844  -0.73523  -0.73465  -0.72095  -0.69824
 Alpha  occ. eigenvalues --   -0.68387  -0.67936  -0.66551  -0.63334  -0.62963
 Alpha  occ. eigenvalues --   -0.61928  -0.61778  -0.61592  -0.60618  -0.60238
 Alpha  occ. eigenvalues --   -0.59928  -0.59113  -0.58481  -0.58287  -0.56905
 Alpha  occ. eigenvalues --   -0.53303  -0.53198  -0.52891  -0.51928  -0.51754
 Alpha  occ. eigenvalues --   -0.51513  -0.50285  -0.49090  -0.48837  -0.47767
 Alpha  occ. eigenvalues --   -0.47755  -0.46812  -0.46386  -0.46266  -0.46067
 Alpha  occ. eigenvalues --   -0.45375  -0.44819  -0.44684  -0.44509  -0.43787
 Alpha  occ. eigenvalues --   -0.43210  -0.43164  -0.42478  -0.42439  -0.42164
 Alpha  occ. eigenvalues --   -0.41872  -0.41781  -0.41293  -0.40978  -0.40961
 Alpha  occ. eigenvalues --   -0.40740  -0.40569  -0.40166  -0.39869  -0.39617
 Alpha  occ. eigenvalues --   -0.38790  -0.38782  -0.37429  -0.37356  -0.36905
 Alpha  occ. eigenvalues --   -0.36150  -0.35954  -0.35596  -0.34689  -0.34663
 Alpha  occ. eigenvalues --   -0.34410  -0.33691  -0.33445  -0.33292  -0.33103
 Alpha  occ. eigenvalues --   -0.33007  -0.32164  -0.31269  -0.30767  -0.30019
 Alpha  occ. eigenvalues --   -0.28976  -0.28854  -0.27651  -0.27155  -0.25825
 Alpha  occ. eigenvalues --   -0.24957  -0.23595  -0.23182  -0.21785  -0.18511
 Alpha  occ. eigenvalues --   -0.17039
 Alpha virt. eigenvalues --   -0.10429  -0.08943  -0.05136  -0.03688  -0.03409
 Alpha virt. eigenvalues --   -0.01979  -0.00881   0.00601   0.01393   0.01472
 Alpha virt. eigenvalues --    0.02098   0.02819   0.03024   0.03517   0.03932
 Alpha virt. eigenvalues --    0.03990   0.04633   0.05469   0.05579   0.05989
 Alpha virt. eigenvalues --    0.06138   0.06678   0.07196   0.07602   0.07706
 Alpha virt. eigenvalues --    0.08130   0.08725   0.09038   0.09389   0.09692
 Alpha virt. eigenvalues --    0.10706   0.10860   0.11291   0.11978   0.12601
 Alpha virt. eigenvalues --    0.13074   0.13134   0.13180   0.13597   0.14011
 Alpha virt. eigenvalues --    0.14879   0.15804   0.16123   0.17070   0.17628
 Alpha virt. eigenvalues --    0.17957   0.18174   0.18973   0.19319   0.19943
 Alpha virt. eigenvalues --    0.20500   0.20648   0.22210   0.22530   0.23636
 Alpha virt. eigenvalues --    0.23786   0.24003   0.24288   0.25009   0.25350
 Alpha virt. eigenvalues --    0.26163   0.26403   0.26856   0.27131   0.27538
 Alpha virt. eigenvalues --    0.27794   0.28173   0.28504   0.28570   0.28888
 Alpha virt. eigenvalues --    0.29028   0.29290   0.29999   0.30019   0.30192
 Alpha virt. eigenvalues --    0.30310   0.30692   0.31166   0.31403   0.31909
 Alpha virt. eigenvalues --    0.32949   0.34136   0.34255   0.35133   0.35337
 Alpha virt. eigenvalues --    0.35404   0.35781   0.35831   0.36552   0.36639
 Alpha virt. eigenvalues --    0.36903   0.36933   0.37407   0.37741   0.37900
 Alpha virt. eigenvalues --    0.37969   0.38205   0.38550   0.38611   0.38728
 Alpha virt. eigenvalues --    0.39089   0.39252   0.39450   0.39593   0.40226
 Alpha virt. eigenvalues --    0.40368   0.40537   0.40740   0.40775   0.41224
 Alpha virt. eigenvalues --    0.41734   0.41833   0.42038   0.42275   0.42283
 Alpha virt. eigenvalues --    0.42356   0.42868   0.43026   0.43147   0.43323
 Alpha virt. eigenvalues --    0.43456   0.44015   0.44588   0.44744   0.44862
 Alpha virt. eigenvalues --    0.44938   0.45465   0.45515   0.45635   0.45855
 Alpha virt. eigenvalues --    0.45886   0.46270   0.46535   0.46621   0.46775
 Alpha virt. eigenvalues --    0.46785   0.46985   0.47108   0.47297   0.47843
 Alpha virt. eigenvalues --    0.48261   0.48624   0.48746   0.48993   0.48996
 Alpha virt. eigenvalues --    0.49480   0.49898   0.50050   0.50361   0.50736
 Alpha virt. eigenvalues --    0.50743   0.51054   0.51898   0.52004   0.52306
 Alpha virt. eigenvalues --    0.52611   0.52664   0.52871   0.53703   0.54431
 Alpha virt. eigenvalues --    0.54888   0.55325   0.56645   0.56657   0.56926
 Alpha virt. eigenvalues --    0.56985   0.57107   0.58147   0.58557   0.58735
 Alpha virt. eigenvalues --    0.59258   0.59668   0.59675   0.60328   0.60401
 Alpha virt. eigenvalues --    0.60627   0.61206   0.61305   0.61441   0.61882
 Alpha virt. eigenvalues --    0.62175   0.62372   0.62538   0.62675   0.62708
 Alpha virt. eigenvalues --    0.62721   0.63189   0.63777   0.63875   0.63894
 Alpha virt. eigenvalues --    0.64092   0.64186   0.64781   0.64879   0.65387
 Alpha virt. eigenvalues --    0.65760   0.65916   0.66449   0.66683   0.67918
 Alpha virt. eigenvalues --    0.68168   0.68631   0.69458   0.70200   0.70734
 Alpha virt. eigenvalues --    0.70742   0.70910   0.71606   0.72056   0.72479
 Alpha virt. eigenvalues --    0.72855   0.72964   0.74080   0.74352   0.74418
 Alpha virt. eigenvalues --    0.75050   0.75777   0.75812   0.76417   0.76922
 Alpha virt. eigenvalues --    0.76951   0.77793   0.78393   0.78650   0.78659
 Alpha virt. eigenvalues --    0.78820   0.78983   0.80033   0.80116   0.80398
 Alpha virt. eigenvalues --    0.80523   0.80726   0.81907   0.82504   0.82738
 Alpha virt. eigenvalues --    0.83028   0.83131   0.83250   0.83630   0.84260
 Alpha virt. eigenvalues --    0.84352   0.84689   0.84858   0.85250   0.85331
 Alpha virt. eigenvalues --    0.85958   0.86134   0.87224   0.87598   0.88043
 Alpha virt. eigenvalues --    0.89154   0.89400   0.89866   0.90200   0.91092
 Alpha virt. eigenvalues --    0.91605   0.92130   0.92165   0.93340   0.93571
 Alpha virt. eigenvalues --    0.94583   0.94869   0.95867   0.95869   0.95971
 Alpha virt. eigenvalues --    0.96190   0.96348   0.97005   0.97699   0.98382
 Alpha virt. eigenvalues --    0.98406   0.99173   0.99345   0.99466   0.99574
 Alpha virt. eigenvalues --    1.00131   1.00416   1.01308   1.01840   1.02188
 Alpha virt. eigenvalues --    1.02897   1.03035   1.03051   1.03846   1.03956
 Alpha virt. eigenvalues --    1.04279   1.04714   1.05177   1.05298   1.05330
 Alpha virt. eigenvalues --    1.06040   1.06333   1.06390   1.06556   1.06810
 Alpha virt. eigenvalues --    1.07728   1.08192   1.08382   1.08514   1.08873
 Alpha virt. eigenvalues --    1.09713   1.09832   1.10226   1.10482   1.10872
 Alpha virt. eigenvalues --    1.11366   1.11557   1.12485   1.12661   1.12996
 Alpha virt. eigenvalues --    1.13180   1.13613   1.14085   1.14107   1.14459
 Alpha virt. eigenvalues --    1.15003   1.15317   1.15579   1.16162   1.17264
 Alpha virt. eigenvalues --    1.18233   1.18399   1.18455   1.19667   1.20472
 Alpha virt. eigenvalues --    1.21342   1.22120   1.22818   1.23802   1.24000
 Alpha virt. eigenvalues --    1.24651   1.25574   1.27658   1.28468   1.30349
 Alpha virt. eigenvalues --    1.31067   1.31107   1.32178   1.32810   1.33375
 Alpha virt. eigenvalues --    1.35133   1.35623   1.36629   1.37347   1.37660
 Alpha virt. eigenvalues --    1.39130   1.39780   1.40154   1.40344   1.40853
 Alpha virt. eigenvalues --    1.41044   1.41624   1.41932   1.41949   1.42120
 Alpha virt. eigenvalues --    1.42538   1.43677   1.44261   1.45014   1.45476
 Alpha virt. eigenvalues --    1.46020   1.46526   1.47160   1.47217   1.47507
 Alpha virt. eigenvalues --    1.47582   1.47815   1.48408   1.48927   1.49414
 Alpha virt. eigenvalues --    1.49614   1.49958   1.50221   1.50306   1.50752
 Alpha virt. eigenvalues --    1.51168   1.51773   1.51775   1.52303   1.53208
 Alpha virt. eigenvalues --    1.53291   1.54119   1.54668   1.54853   1.55085
 Alpha virt. eigenvalues --    1.55132   1.55207   1.55327   1.55851   1.56599
 Alpha virt. eigenvalues --    1.56662   1.57271   1.57723   1.58621   1.58985
 Alpha virt. eigenvalues --    1.59056   1.60121   1.60769   1.60840   1.61650
 Alpha virt. eigenvalues --    1.62862   1.63197   1.63270   1.63445   1.64366
 Alpha virt. eigenvalues --    1.64506   1.64942   1.67138   1.67781   1.67946
 Alpha virt. eigenvalues --    1.68748   1.69337   1.70037   1.70745   1.70881
 Alpha virt. eigenvalues --    1.71298   1.71575   1.72093   1.72222   1.72286
 Alpha virt. eigenvalues --    1.72671   1.73133   1.73409   1.73786   1.74113
 Alpha virt. eigenvalues --    1.74405   1.74740   1.75085   1.76521   1.76676
 Alpha virt. eigenvalues --    1.77059   1.78488   1.79004   1.79467   1.79964
 Alpha virt. eigenvalues --    1.80515   1.80654   1.80958   1.81306   1.81560
 Alpha virt. eigenvalues --    1.81661   1.81862   1.82280   1.82945   1.83189
 Alpha virt. eigenvalues --    1.83554   1.84577   1.84775   1.85652   1.85729
 Alpha virt. eigenvalues --    1.86218   1.86572   1.87050   1.87439   1.87955
 Alpha virt. eigenvalues --    1.88267   1.88400   1.88447   1.88703   1.88846
 Alpha virt. eigenvalues --    1.88987   1.89585   1.89596   1.90868   1.91162
 Alpha virt. eigenvalues --    1.91399   1.91476   1.91686   1.92313   1.92690
 Alpha virt. eigenvalues --    1.92701   1.93106   1.93805   1.93857   1.94072
 Alpha virt. eigenvalues --    1.94170   1.94505   1.94864   1.95027   1.95382
 Alpha virt. eigenvalues --    1.95731   1.96309   1.96633   1.96735   1.97970
 Alpha virt. eigenvalues --    1.99507   1.99655   2.00180   2.00641   2.00650
 Alpha virt. eigenvalues --    2.01582   2.01770   2.02735   2.03127   2.04503
 Alpha virt. eigenvalues --    2.05657   2.06613   2.07679   2.08285   2.08786
 Alpha virt. eigenvalues --    2.09002   2.09427   2.10910   2.11345   2.11655
 Alpha virt. eigenvalues --    2.11822   2.12569   2.13203   2.13900   2.15328
 Alpha virt. eigenvalues --    2.15399   2.16139   2.16756   2.17163   2.17979
 Alpha virt. eigenvalues --    2.18101   2.19533   2.20339   2.21989   2.22174
 Alpha virt. eigenvalues --    2.22425   2.22674   2.23159   2.23430   2.24237
 Alpha virt. eigenvalues --    2.24541   2.25676   2.25869   2.26498   2.26851
 Alpha virt. eigenvalues --    2.27432   2.27453   2.27788   2.28280   2.28565
 Alpha virt. eigenvalues --    2.29014   2.30294   2.30483   2.31711   2.32326
 Alpha virt. eigenvalues --    2.33667   2.35439   2.36101   2.36857   2.38812
 Alpha virt. eigenvalues --    2.39476   2.40123   2.40780   2.40979   2.41685
 Alpha virt. eigenvalues --    2.42662   2.43004   2.45375   2.45543   2.45680
 Alpha virt. eigenvalues --    2.46214   2.46514   2.46781   2.47090   2.50470
 Alpha virt. eigenvalues --    2.50612   2.52001   2.52064   2.53341   2.53726
 Alpha virt. eigenvalues --    2.54436   2.55259   2.55411   2.55846   2.56248
 Alpha virt. eigenvalues --    2.57188   2.58207   2.58460   2.58819   2.59461
 Alpha virt. eigenvalues --    2.59910   2.60606   2.60665   2.60915   2.61072
 Alpha virt. eigenvalues --    2.61313   2.61427   2.61974   2.62624   2.62758
 Alpha virt. eigenvalues --    2.63053   2.64212   2.64311   2.64343   2.65193
 Alpha virt. eigenvalues --    2.65419   2.65675   2.66094   2.66587   2.66974
 Alpha virt. eigenvalues --    2.67637   2.67970   2.68137   2.68611   2.68644
 Alpha virt. eigenvalues --    2.69163   2.69266   2.69510   2.70022   2.70037
 Alpha virt. eigenvalues --    2.70133   2.71068   2.71075   2.72103   2.72117
 Alpha virt. eigenvalues --    2.72282   2.72283   2.73332   2.73466   2.73719
 Alpha virt. eigenvalues --    2.74163   2.75297   2.75542   2.75712   2.77002
 Alpha virt. eigenvalues --    2.77126   2.77371   2.77725   2.78305   2.78328
 Alpha virt. eigenvalues --    2.78799   2.79041   2.80071   2.80144   2.80542
 Alpha virt. eigenvalues --    2.81414   2.81901   2.82325   2.83033   2.83994
 Alpha virt. eigenvalues --    2.84105   2.84776   2.85541   2.86217   2.86336
 Alpha virt. eigenvalues --    2.87418   2.87511   2.87728   2.88948   2.89747
 Alpha virt. eigenvalues --    2.89805   2.90619   2.91516   2.91959   2.93179
 Alpha virt. eigenvalues --    2.93224   2.93287   2.94001   2.94775   2.95321
 Alpha virt. eigenvalues --    2.96152   2.96430   2.98459   2.98707   2.99460
 Alpha virt. eigenvalues --    3.00094   3.00419   3.00952   3.04273   3.05612
 Alpha virt. eigenvalues --    3.06803   3.06961   3.07847   3.09070   3.09393
 Alpha virt. eigenvalues --    3.11187   3.11736   3.15902   3.16341   3.16649
 Alpha virt. eigenvalues --    3.17110   3.17669   3.18113   3.19842   3.20142
 Alpha virt. eigenvalues --    3.21439   3.22591   3.23242   3.24931   3.29542
 Alpha virt. eigenvalues --    3.29950   3.30246   3.30708   3.31934   3.33269
 Alpha virt. eigenvalues --    3.35442   3.35602   3.36185   3.36454   3.36543
 Alpha virt. eigenvalues --    3.37145   3.37150   3.38072   3.38350   3.39289
 Alpha virt. eigenvalues --    3.40026   3.41570   3.41980   3.43123   3.45176
 Alpha virt. eigenvalues --    3.45611   3.46051   3.47075   3.48329   3.48393
 Alpha virt. eigenvalues --    3.49807   3.50006   3.50935   3.51499   3.53046
 Alpha virt. eigenvalues --    3.54817   3.57412   3.58831   3.58855   3.59859
 Alpha virt. eigenvalues --    3.61420   3.62662   3.62734   3.63529   3.63880
 Alpha virt. eigenvalues --    3.63959   3.65793   3.66343   3.67370   3.67990
 Alpha virt. eigenvalues --    3.68460   3.68631   3.69902   3.70014   4.00230
 Alpha virt. eigenvalues --    4.00286   4.01418   4.01642   4.01955   4.01990
 Alpha virt. eigenvalues --    4.02839   4.03153   4.15802   4.16420   4.17292
 Alpha virt. eigenvalues --    4.18744   4.19019   4.19833   4.21376   4.22181
 Alpha virt. eigenvalues --    4.22474   4.23514   4.24105   4.25416   4.25489
 Alpha virt. eigenvalues --    4.28069   4.38088   4.40632   4.62085   4.64419
 Alpha virt. eigenvalues --    4.78626   4.79271   4.80088   4.80538   4.80959
 Alpha virt. eigenvalues --    4.82098   4.82103   4.82550   4.84407   4.84916
 Alpha virt. eigenvalues --   23.39141  23.41527  23.54701  23.56580  23.69392
 Alpha virt. eigenvalues --   23.70814  23.77328  23.78907  23.80480  23.81379
 Alpha virt. eigenvalues --   23.81910  23.83071  23.86084  23.87274  23.89005
 Alpha virt. eigenvalues --   23.89086  23.90261  23.90276  23.92059  23.93599
 Alpha virt. eigenvalues --   23.97028  23.97914  23.98517  23.99291  24.08597
 Alpha virt. eigenvalues --   24.09359  24.10005  24.10055  24.10836  24.11460
 Alpha virt. eigenvalues --   24.11839  24.13281  24.13406  24.13821  24.14900
 Alpha virt. eigenvalues --   24.15261  24.15287  24.15628  24.16570  24.16604
 Alpha virt. eigenvalues --   24.19930  24.19976  24.21432  24.21491
          Condensed to atoms (all electrons):
 Mulliken charges:
               1
     1  C   -0.053973
     2  C   -0.022852
     3  C   -0.050546
     4  C   -0.106798
     5  C   -0.087309
     6  C   -0.078174
     7  C   -0.005218
     8  C   -0.051862
     9  C   -0.084327
    10  C   -0.012985
    11  H    0.084683
    12  H    0.077764
    13  H    0.083480
    14  H    0.092343
    15  H    0.097775
    16  H    0.096996
    17  C   -0.009550
    18  C   -0.051862
    19  C   -0.087277
    20  C   -0.012985
    21  H    0.076447
    22  H    0.082347
    23  C   -0.005218
    24  C   -0.053973
    25  C   -0.084327
    26  C   -0.022852
    27  H    0.077764
    28  H    0.083480
    29  C   -0.050546
    30  C   -0.087309
    31  C   -0.106798
    32  C   -0.078174
    33  H    0.084683
    34  H    0.096996
    35  H    0.097775
    36  H    0.092343
    37  C   -0.023630
    38  C   -0.113147
    39  C   -0.062229
    40  C   -0.041534
    41  C   -0.087101
    42  C   -0.117345
    43  C   -0.029184
    44  C   -0.011287
    45  C   -0.004787
    46  C   -0.118816
    47  H    0.078919
    48  H    0.070661
    49  H    0.103603
    50  H    0.104406
    51  H    0.085990
    52  H    0.091332
    53  C   -0.032929
    54  C   -0.011287
    55  C   -0.010204
    56  C   -0.118816
    57  H    0.069277
    58  H    0.102194
    59  C   -0.029184
    60  C   -0.023630
    61  C   -0.004787
    62  C   -0.113147
    63  H    0.070661
    64  H    0.103603
    65  C   -0.062229
    66  C   -0.087101
    67  C   -0.041534
    68  C   -0.117345
    69  H    0.078919
    70  H    0.091332
    71  H    0.085990
    72  H    0.104406
 Sum of Mulliken charges =   0.00000
 Mulliken charges with hydrogens summed into heavy atoms:
               1
     1  C   -0.053973
     2  C   -0.022852
     3  C    0.034138
     4  C   -0.014455
     5  C    0.009687
     6  C    0.019601
     7  C    0.072546
     8  C   -0.051862
     9  C   -0.000847
    10  C   -0.012985
    17  C    0.066896
    18  C   -0.051862
    19  C   -0.004930
    20  C   -0.012985
    23  C    0.072546
    24  C   -0.053973
    25  C   -0.000847
    26  C   -0.022852
    29  C    0.034138
    30  C    0.009687
    31  C   -0.014455
    32  C    0.019601
    37  C   -0.023630
    38  C   -0.113147
    39  C    0.016690
    40  C    0.062871
    41  C    0.004231
    42  C   -0.031355
    43  C    0.041476
    44  C   -0.011287
    45  C    0.098816
    46  C   -0.118816
    53  C    0.036348
    54  C   -0.011287
    55  C    0.091989
    56  C   -0.118816
    59  C    0.041476
    60  C   -0.023630
    61  C    0.098816
    62  C   -0.113147
    65  C    0.016690
    66  C    0.004231
    67  C    0.062871
    68  C   -0.031355
         Mulliken charges condensed to fragments:
      1      0.019963
      2     -0.019963
 Electronic spatial extent (au):  <R**2>=          26157.8206
 Charge=              0.0000 electrons
 Dipole moment (field-independent basis, Debye):
    X=              1.1598    Y=             -1.2680    Z=              0.0000  Tot=              1.7184
 Quadrupole moment (field-independent basis, Debye-Ang):
   XX=           -246.0257   YY=           -249.0575   ZZ=           -219.2457
   XY=             -0.4487   XZ=              0.0000   YZ=              0.0000
 Traceless Quadrupole moment (field-independent basis, Debye-Ang):
   XX=             -7.9160   YY=            -10.9479   ZZ=             18.8639
   XY=             -0.4487   XZ=              0.0000   YZ=              0.0000
 Octapole moment (field-independent basis, Debye-Ang**2):
  XXX=             89.7256  YYY=            170.6974  ZZZ=              0.0000  XYY=            -19.2483
  XXY=            -69.9427  XXZ=              0.0000  XZZ=             20.6699  YZZ=            -29.9736
  YYZ=              0.0000  XYZ=              0.0000
 Hexadecapole moment (field-independent basis, Debye-Ang**3):
 XXXX=          -2921.1225 YYYY=         -10405.1069 ZZZZ=         -21008.2120 XXXY=           1936.2823
 XXXZ=              0.0000 YYYX=           1951.6513 YYYZ=              0.0000 ZZZX=              0.0000
 ZZZY=              0.0000 XXYY=          -2300.3813 XXZZ=          -4410.8439 YYZZ=          -5541.9954
 XXYZ=              0.0000 YYXZ=              0.0000 ZZXY=            571.1498
 N-N= 4.615127406937D+03 E-N=-1.316074721978D+04  KE= 1.686731865864D+03
 Symmetry A'   KE= 9.134485938669D+02
 Symmetry A"   KE= 7.732832719975D+02
 No NMR shielding tensors so no spin-rotation constants.
 Leave Link  601 at Wed Sep 27 17:00:08 2023, MaxMem=  3221225472 cpu:              52.7 elap:               1.4
 (Enter /home/center/opt/aarch64/apps/gaussian16/c01/g16/l122.exe)
 CPIOFr:  IOpCl= 0 IRwI=-1 IRwCP=  731 ICalc= -1 LCPTot=     1419224 Len1MO=     3708034 IndFrg=     1419224
 CPIOFr:  IOpCl= 0 IRwI=-1 IRwCP=  731 ICalc=  0 LCPTot=     1419224 Len1MO=     3708034 IndFrg=     5127258
 Counterpoise: doing calculation for fragment   1 using the basis set of the full-system, NewBq=T
 Leave Link  122 at Wed Sep 27 17:00:11 2023, MaxMem=  3221225472 cpu:               8.7 elap:               0.5
 (Enter /home/center/opt/aarch64/apps/gaussian16/c01/g16/l301.exe)
 Basis read from rwf:  (5D, 7F)
 No pseudopotential information found on rwf file.
 There are   528 symmetry adapted cartesian basis functions of A'  symmetry.
 There are   476 symmetry adapted cartesian basis functions of A"  symmetry.
 There are   504 symmetry adapted basis functions of A'  symmetry.
 There are   456 symmetry adapted basis functions of A"  symmetry.
   960 basis functions,  1632 primitive gaussians,  1004 cartesian basis functions
    73 alpha electrons       73 beta electrons
       nuclear repulsion energy      1494.3575059964 Hartrees.
 IExCor=  402 DFT=T Ex+Corr=B3LYP ExCW=0 ScaHFX=  0.200000
 ScaDFX=  0.800000  0.720000  1.000000  0.810000 ScalE2=  1.000000  1.000000
 IRadAn=      5 IRanWt=     -1 IRanGd=            0 ICorTp=0 IEmpDi=131
 NAtoms=   72 NActive=   72 NUniq=   40 SFac= 3.24D+00 NAtFMM=   60 NAOKFM=T Big=F
 Integral buffers will be    131072 words long.
 Raffenetti 2 integral format.
 Two-electron integral symmetry is turned on.
 R6Disp:  Grimme-D3 Dispersion energy=       -0.0303938888 Hartrees.
 Nuclear repulsion after empirical dispersion term =     1494.3271121076 Hartrees.
 No density basis found on file    718.
 Leave Link  301 at Wed Sep 27 17:00:13 2023, MaxMem=  3221225472 cpu:               2.9 elap:               0.1
 (Enter /home/center/opt/aarch64/apps/gaussian16/c01/g16/l302.exe)
 NPDir=0 NMtPBC=     1 NCelOv=     1 NCel=       1 NClECP=     1 NCelD=      1
         NCelK=      1 NCelE2=     1 NClLst=     1 CellRange=     0.0.
 One-electron integrals computed using PRISM.
 One-electron integral symmetry used in STVInt
 NBasis=   960 RedAO= T EigKep=  3.83D-05  NBF=   504   456
 NBsUse=   960 1.00D-06 EigRej= -1.00D+00 NBFU=   504   456
 Precomputing XC quadrature grid using
 IXCGrd= 4 IRadAn=           5 IRanWt=          -1 IRanGd=           0 AccXCQ= 0.00D+00.
 Generated NRdTot=       0 NPtTot=           0 NUsed=           0 NTot=          32
 NSgBfM=   989   989   989   989   989 MxSgAt=    72 MxSgA2=    72.
 Leave Link  302 at Wed Sep 27 17:00:17 2023, MaxMem=  3221225472 cpu:              43.1 elap:               1.6
 (Enter /home/center/opt/aarch64/apps/gaussian16/c01/g16/l303.exe)
 DipDrv:  MaxL=1.
 Leave Link  303 at Wed Sep 27 17:00:19 2023, MaxMem=  3221225472 cpu:              12.8 elap:               0.4
 (Enter /home/center/opt/aarch64/apps/gaussian16/c01/g16/l401.exe)
 ExpMin= 1.03D-01 ExpMax= 4.56D+03 ExpMxC= 6.82D+02 IAcc=3 IRadAn=         5 AccDes= 0.00D+00
 Harris functional with IExCor=  402 and IRadAn=       5 diagonalized for initial guess.
 HarFok:  IExCor=  402 AccDes= 0.00D+00 IRadAn=         5 IDoV= 1 UseB2=F ITyADJ=14
 ICtDFT=  3500011 ScaDFX=  1.000000  1.000000  1.000000  1.000000
 FoFCou: FMM=F IPFlag=           0 FMFlag=      100000 FMFlg1=        2000
         NFxFlg=           0 DoJE=T BraDBF=F KetDBF=T FulRan=T
         wScrn=  0.000000 ICntrl=       500 IOpCl=  0 I1Cent=   200000004 NGrid=           0
         NMat0=    1 NMatS0=      1 NMatT0=    0 NMatD0=    1 NMtDS0=    0 NMtDT0=    0
 Petite list used in FoFCou.
 Harris En= -847.065679078483    
 JPrj=0 DoOrth=F DoCkMO=F.
 Initial guess orbital symmetries:
       Occupied  (A") (A') (A') (A") (A") (A') (A") (A') (A') (A")
                 (A") (A') (A') (A') (A") (A') (A") (A') (A") (A')
                 (A') (A") (A') (A") (A') (A") (A') (A') (A") (A')
                 (A") (A") (A') (A') (A") (A") (A') (A") (A') (A')
                 (A') (A") (A") (A") (A') (A') (A") (A') (A') (A")
                 (A') (A") (A") (A') (A') (A") (A') (A") (A') (A")
                 (A") (A') (A') (A") (A') (A") (A') (A") (A') (A')
                 (A") (A") (A')
       Virtual   (A') (A") (A") (A') (A') (A") (A') (A") (A') (A")
                 (A') (A') (A") (A') (A") (A') (A") (A') (A') (A")
                 (A") (A') (A") (A') (A") (A') (A') (A') (A') (A")
                 (A') (A") (A') (A") (A") (A') (A') (A") (A") (A')
                 (A') (A") (A") (A') (A") (A') (A') (A") (A") (A')
                 (A") (A') (A") (A') (A') (A') (A") (A") (A') (A")
                 (A') (A') (A") (A") (A') (A') (A') (A") (A') (A")
                 (A') (A") (A") (A') (A") (A') (A') (A') (A") (A')
                 (A') (A') (A") (A") (A') (A") (A') (A") (A") (A')
                 (A") (A") (A") (A') (A') (A") (A") (A') (A') (A')
                 (A') (A") (A') (A') (A') (A") (A') (A") (A") (A')
                 (A") (A") (A') (A') (A") (A") (A') (A") (A") (A')
                 (A') (A') (A") (A') (A") (A') (A') (A') (A") (A')
                 (A") (A') (A") (A') (A") (A') (A") (A') (A") (A')
                 (A') (A") (A") (A') (A") (A') (A") (A") (A") (A')
                 (A') (A') (A") (A') (A") (A') (A") (A') (A') (A")
                 (A') (A') (A") (A") (A') (A") (A') (A") (A') (A")
                 (A') (A') (A") (A") (A") (A') (A') (A') (A") (A')
                 (A") (A') (A") (A") (A') (A") (A') (A') (A") (A")
                 (A') (A') (A') (A") (A') (A") (A') (A") (A') (A")
                 (A') (A") (A') (A") (A") (A') (A') (A") (A") (A')
                 (A') (A") (A') (A") (A") (A') (A') (A") (A") (A")
                 (A') (A') (A') (A") (A') (A") (A') (A') (A") (A')
                 (A') (A") (A') (A') (A") (A") (A") (A') (A") (A")
                 (A") (A') (A') (A') (A") (A') (A') (A") (A") (A")
                 (A') (A") (A') (A') (A") (A') (A") (A') (A") (A")
                 (A') (A') (A") (A') (A') (A') (A") (A') (A") (A')
                 (A') (A") (A") (A") (A") (A") (A') (A') (A') (A')
                 (A") (A") (A") (A') (A') (A') (A") (A') (A") (A')
                 (A") (A") (A') (A') (A') (A") (A') (A') (A") (A')
                 (A") (A') (A") (A") (A') (A") (A") (A") (A') (A")
                 (A") (A') (A') (A') (A') (A') (A") (A") (A') (A')
                 (A") (A") (A') (A') (A") (A') (A") (A') (A") (A')
                 (A') (A") (A') (A') (A') (A") (A") (A') (A') (A")
                 (A") (A") (A') (A") (A') (A") (A') (A") (A') (A')
                 (A") (A') (A") (A') (A") (A') (A") (A') (A') (A')
                 (A') (A") (A') (A") (A") (A') (A") (A") (A') (A")
                 (A') (A") (A') (A") (A') (A") (A') (A") (A") (A')
                 (A") (A') (A") (A') (A") (A') (A') (A") (A') (A")
                 (A') (A") (A') (A") (A') (A') (A") (A") (A') (A")
                 (A") (A') (A') (A") (A") (A') (A') (A") (A') (A")
                 (A') (A") (A') (A') (A") (A') (A") (A') (A") (A')
                 (A") (A") (A') (A') (A") (A') (A") (A") (A') (A")
                 (A") (A') (A') (A') (A') (A') (A") (A") (A") (A')
                 (A") (A') (A") (A') (A") (A') (A') (A") (A') (A")
                 (A') (A") (A') (A') (A') (A") (A") (A") (A') (A")
                 (A") (A') (A') (A') (A") (A") (A") (A') (A') (A')
                 (A") (A") (A') (A') (A") (A") (A") (A') (A') (A")
                 (A") (A') (A") (A') (A") (A') (A') (A") (A") (A')
                 (A') (A") (A') (A') (A") (A") (A') (A") (A') (A")
                 (A") (A') (A') (A") (A') (A") (A') (A") (A') (A")
                 (A') (A") (A') (A') (A") (A") (A") (A') (A') (A')
                 (A") (A") (A') (A') (A") (A") (A') (A') (A") (A')
                 (A") (A') (A') (A") (A') (A") (A') (A") (A') (A')
                 (A") (A') (A") (A") (A') (A') (A") (A') (A") (A')
                 (A") (A') (A") (A') (A') (A") (A") (A') (A') (A")
                 (A") (A') (A') (A") (A") (A") (A') (A') (A') (A")
                 (A") (A') (A') (A") (A') (A') (A") (A') (A") (A')
                 (A") (A") (A") (A') (A") (A') (A") (A') (A') (A')
                 (A") (A') (A") (A') (A') (A") (A") (A') (A") (A")
                 (A') (A') (A") (A") (A') (A') (A") (A') (A") (A")
                 (A') (A') (A') (A") (A') (A") (A') (A") (A') (A')
                 (A") (A") (A') (A") (A') (A") (A") (A') (A') (A")
                 (A") (A') (A") (A") (A") (A') (A') (A') (A') (A')
                 (A") (A") (A') (A") (A') (A") (A') (A') (A") (A")
                 (A') (A") (A') (A") (A') (A") (A') (A") (A") (A')
                 (A") (A") (A') (A") (A') (A') (A") (A') (A") (A')
                 (A') (A") (A") (A') (A") (A') (A') (A") (A') (A')
                 (A") (A') (A") (A') (A') (A") (A") (A') (A') (A")
                 (A') (A") (A') (A') (A") (A") (A") (A') (A') (A')
[...]
                 (A') (A') (A") (A") (A') (A") (A') (A") (A') (A')
                 (A") (A") (A')
       Virtual   (A') (A") (A") (A') (A') (A") (A') (A') (A') (A")
                 (A") (A') (A") (A') (A") (A') (A") (A") (A') (A")
                 (A') (A') (A") (A') (A") (A') (A') (A') (A') (A")
                 (A") (A") (A") (A') (A') (A") (A') (A") (A') (A")
                 (A') (A') (A') (A") (A') (A") (A") (A') (A') (A")
                 (A") (A') (A') (A") (A') (A") (A") (A") (A') (A")
                 (A') (A') (A') (A') (A') (A") (A') (A') (A") (A")
                 (A") (A') (A') (A') (A") (A') (A") (A") (A") (A')
                 (A') (A") (A') (A") (A") (A') (A") (A') (A') (A')
                 (A') (A') (A") (A") (A") (A") (A') (A") (A') (A")
                 (A') (A') (A') (A") (A") (A') (A') (A") (A') (A")
                 (A') (A") (A") (A") (A') (A') (A") (A') (A') (A")
                 (A') (A") (A") (A') (A') (A") (A') (A") (A') (A")
                 (A") (A') (A') (A') (A') (A") (A") (A") (A') (A")
                 (A') (A") (A') (A") (A') (A') (A") (A") (A') (A")
                 (A') (A") (A') (A") (A') (A') (A") (A') (A") (A")
                 (A') (A") (A') (A') (A") (A") (A') (A") (A') (A")
                 (A') (A') (A") (A') (A') (A") (A") (A') (A') (A')
                 (A") (A') (A") (A") (A") (A") (A') (A") (A') (A')
                 (A") (A') (A") (A') (A') (A') (A") (A') (A") (A')
                 (A") (A") (A') (A') (A") (A") (A') (A') (A") (A')
                 (A') (A') (A') (A") (A") (A") (A") (A') (A') (A")
                 (A') (A") (A") (A') (A") (A') (A") (A') (A") (A')
                 (A") (A') (A') (A") (A') (A") (A") (A') (A') (A")
                 (A") (A') (A') (A") (A") (A') (A") (A") (A") (A')
                 (A') (A") (A') (A') (A") (A') (A') (A") (A') (A")
                 (A") (A') (A") (A') (A') (A") (A") (A") (A') (A')
                 (A") (A') (A') (A") (A") (A") (A') (A") (A') (A')
                 (A") (A') (A") (A') (A") (A') (A') (A') (A") (A')
                 (A") (A") (A') (A') (A") (A") (A') (A") (A') (A")
                 (A') (A') (A") (A") (A') (A') (A") (A') (A') (A')
                 (A") (A") (A') (A") (A') (A") (A') (A") (A') (A')
                 (A') (A") (A") (A") (A') (A") (A') (A') (A') (A")
                 (A") (A') (A") (A') (A') (A") (A') (A") (A") (A')
                 (A') (A") (A') (A") (A") (A') (A') (A") (A') (A")
                 (A') (A") (A') (A") (A') (A") (A") (A') (A') (A")
                 (A') (A") (A') (A') (A") (A") (A') (A") (A') (A')
                 (A") (A') (A") (A') (A') (A") (A') (A") (A') (A")
                 (A") (A') (A") (A') (A") (A') (A") (A') (A') (A")
                 (A") (A') (A") (A') (A') (A") (A") (A') (A') (A")
                 (A') (A") (A') (A") (A') (A') (A")
 The electronic state is 1-A'.
 Alpha  occ. eigenvalues --  -10.18931 -10.18930 -10.18896 -10.18895 -10.18848
 Alpha  occ. eigenvalues --  -10.18848 -10.18813 -10.18813 -10.17956 -10.17955
 Alpha  occ. eigenvalues --  -10.17920 -10.17920 -10.17919 -10.17919 -10.17875
 Alpha  occ. eigenvalues --  -10.17875 -10.17863 -10.17863 -10.17808 -10.17808
 Alpha  occ. eigenvalues --  -10.17781 -10.17781  -0.89340  -0.87865  -0.85549
 Alpha  occ. eigenvalues --   -0.82415  -0.79820  -0.78521  -0.78314  -0.75991
 Alpha  occ. eigenvalues --   -0.74255  -0.72901  -0.69196  -0.67344  -0.62728
 Alpha  occ. eigenvalues --   -0.62370  -0.61108  -0.59964  -0.59301  -0.57689
 Alpha  occ. eigenvalues --   -0.52709  -0.52573  -0.52293  -0.49654  -0.48513
 Alpha  occ. eigenvalues --   -0.47160  -0.46110  -0.45590  -0.45476  -0.43928
 Alpha  occ. eigenvalues --   -0.43182  -0.42578  -0.41808  -0.41572  -0.41386
 Alpha  occ. eigenvalues --   -0.40692  -0.40405  -0.39579  -0.38193  -0.36732
 Alpha  occ. eigenvalues --   -0.36341  -0.35550  -0.34094  -0.33809  -0.33058
 Alpha  occ. eigenvalues --   -0.32930  -0.31612  -0.29665  -0.28406  -0.26623
 Alpha  occ. eigenvalues --   -0.24364  -0.22582  -0.17855
 Alpha virt. eigenvalues --   -0.09755  -0.04464  -0.02747  -0.00147   0.02073
 Alpha virt. eigenvalues --    0.02370   0.03189   0.04746   0.04859   0.04871
 Alpha virt. eigenvalues --    0.06161   0.06575   0.07968   0.08162   0.08303
 Alpha virt. eigenvalues --    0.09607   0.10049   0.11524   0.11533   0.13796
 Alpha virt. eigenvalues --    0.14111   0.14670   0.18092   0.18194   0.18832
 Alpha virt. eigenvalues --    0.19391   0.22815   0.23002   0.24379   0.24942
 Alpha virt. eigenvalues --    0.25581   0.27528   0.27575   0.28012   0.28228
 Alpha virt. eigenvalues --    0.28947   0.29389   0.30158   0.30759   0.31175
 Alpha virt. eigenvalues --    0.32897   0.34528   0.36420   0.36484   0.37134
 Alpha virt. eigenvalues --    0.37503   0.37629   0.37651   0.38116   0.38643
 Alpha virt. eigenvalues --    0.39094   0.39439   0.39739   0.40236   0.40435
 Alpha virt. eigenvalues --    0.41918   0.41926   0.41940   0.42289   0.42318
 Alpha virt. eigenvalues --    0.42643   0.43748   0.44233   0.44835   0.45295
 Alpha virt. eigenvalues --    0.45683   0.45924   0.45953   0.46379   0.47165
 Alpha virt. eigenvalues --    0.47805   0.47809   0.47978   0.48073   0.48231
 Alpha virt. eigenvalues --    0.48568   0.49414   0.49572   0.51377   0.51846
 Alpha virt. eigenvalues --    0.52370   0.53118   0.53671   0.55998   0.57923
 Alpha virt. eigenvalues --    0.57955   0.59048   0.59201   0.60433   0.60585
 Alpha virt. eigenvalues --    0.60693   0.61101   0.61690   0.62105   0.62173
 Alpha virt. eigenvalues --    0.63432   0.63481   0.64458   0.64535   0.65533
 Alpha virt. eigenvalues --    0.66693   0.66910   0.67680   0.67724   0.70658
 Alpha virt. eigenvalues --    0.71305   0.71405   0.71494   0.72803   0.73989
 Alpha virt. eigenvalues --    0.75405   0.75894   0.76289   0.77801   0.77809
 Alpha virt. eigenvalues --    0.78943   0.79160   0.79723   0.81162   0.81509
 Alpha virt. eigenvalues --    0.82881   0.83001   0.84383   0.84585   0.84713
 Alpha virt. eigenvalues --    0.88087   0.89711   0.89765   0.91536   0.92083
 Alpha virt. eigenvalues --    0.92578   0.93749   0.95806   0.96107   0.96442
 Alpha virt. eigenvalues --    0.96590   0.96905   0.98547   1.00356   1.01118
 Alpha virt. eigenvalues --    1.02686   1.03027   1.03354   1.04405   1.05244
 Alpha virt. eigenvalues --    1.05439   1.05525   1.05950   1.07395   1.07547
 Alpha virt. eigenvalues --    1.07686   1.08438   1.10005   1.10036   1.12070
 Alpha virt. eigenvalues --    1.13223   1.13544   1.13650   1.14526   1.15341
 Alpha virt. eigenvalues --    1.17432   1.18332   1.19657   1.20432   1.23014
 Alpha virt. eigenvalues --    1.23618   1.27884   1.28234   1.30579   1.32076
 Alpha virt. eigenvalues --    1.32743   1.34942   1.37641   1.39236   1.39896
 Alpha virt. eigenvalues --    1.39942   1.40725   1.42751   1.43476   1.43554
 Alpha virt. eigenvalues --    1.45057   1.46086   1.47119   1.47538   1.48841
 Alpha virt. eigenvalues --    1.49280   1.49417   1.50258   1.50674   1.52268
 Alpha virt. eigenvalues --    1.52650   1.53402   1.54331   1.54372   1.54781
 Alpha virt. eigenvalues --    1.54807   1.57107   1.57715   1.58569   1.59882
 Alpha virt. eigenvalues --    1.60106   1.62692   1.63242   1.64856   1.66641
 Alpha virt. eigenvalues --    1.69292   1.69605   1.69709   1.70649   1.71804
 Alpha virt. eigenvalues --    1.72459   1.72619   1.73075   1.73096   1.73680
 Alpha virt. eigenvalues --    1.77494   1.78519   1.79157   1.79419   1.80511
 Alpha virt. eigenvalues --    1.81616   1.81887   1.82058   1.83581   1.84039
 Alpha virt. eigenvalues --    1.85487   1.87392   1.87456   1.87577   1.87728
 Alpha virt. eigenvalues --    1.88131   1.88613   1.90743   1.91387   1.92190
 Alpha virt. eigenvalues --    1.92193   1.92572   1.92670   1.93517   1.93938
 Alpha virt. eigenvalues --    1.94544   1.95483   1.97262   1.99429   2.00088
 Alpha virt. eigenvalues --    2.00602   2.01362   2.03019   2.05757   2.08293
 Alpha virt. eigenvalues --    2.09111   2.09256   2.09792   2.12192   2.14098
 Alpha virt. eigenvalues --    2.15528   2.15584   2.17200   2.19751   2.20833
 Alpha virt. eigenvalues --    2.21576   2.22525   2.23381   2.24503   2.26441
 Alpha virt. eigenvalues --    2.26972   2.27242   2.27719   2.28046   2.29391
 Alpha virt. eigenvalues --    2.33301   2.35725   2.39155   2.39384   2.40817
 Alpha virt. eigenvalues --    2.42649   2.43076   2.45776   2.45994   2.46870
 Alpha virt. eigenvalues --    2.51623   2.51954   2.53354   2.53485   2.55138
 Alpha virt. eigenvalues --    2.56159   2.58701   2.58838   2.59764   2.59776
 Alpha virt. eigenvalues --    2.60682   2.61147   2.61719   2.62222   2.63349
 Alpha virt. eigenvalues --    2.63999   2.64478   2.66054   2.66794   2.67121
 Alpha virt. eigenvalues --    2.67374   2.68356   2.68872   2.68876   2.69372
 Alpha virt. eigenvalues --    2.69557   2.69907   2.70083   2.70281   2.73482
 Alpha virt. eigenvalues --    2.74771   2.74836   2.76066   2.77101   2.77577
 Alpha virt. eigenvalues --    2.78232   2.78455   2.78850   2.80822   2.82359
 Alpha virt. eigenvalues --    2.85535   2.85993   2.86737   2.87294   2.90966
 Alpha virt. eigenvalues --    2.91783   2.92195   2.93676   2.95232   2.95887
 Alpha virt. eigenvalues --    2.99270   2.99858   3.03165   3.05604   3.06852
 Alpha virt. eigenvalues --    3.07371   3.15988   3.16029   3.16647   3.19843
 Alpha virt. eigenvalues --    3.20017   3.23601   3.29134   3.29680   3.31610
 Alpha virt. eigenvalues --    3.35095   3.35458   3.35677   3.35858   3.38023
 Alpha virt. eigenvalues --    3.39887   3.41413   3.44960   3.45362   3.47993
 Alpha virt. eigenvalues --    3.48278   3.50401   3.53073   3.57439   3.58649
 Alpha virt. eigenvalues --    3.61466   3.62620   3.63208   3.63698   3.65910
 Alpha virt. eigenvalues --    3.67534   3.67678   4.00384   4.00442   4.01859
 Alpha virt. eigenvalues --    4.02182   4.16133   4.16678   4.17360   4.21240
 Alpha virt. eigenvalues --    4.22396   4.22517   4.25488   4.38492   4.62290
 Alpha virt. eigenvalues --    4.79179   4.79740   4.80562   4.82562   4.83014
 Alpha virt. eigenvalues --   23.39176  23.54541  23.69085  23.77378  23.80419
 Alpha virt. eigenvalues --   23.81537  23.86099  23.89067  23.89154  23.92210
 Alpha virt. eigenvalues --   23.97563  23.98365  24.09049  24.09932  24.10529
 Alpha virt. eigenvalues --   24.12220  24.13779  24.14375  24.15775  24.15810
 Alpha virt. eigenvalues --   24.20452  24.20497
          Condensed to atoms (all electrons):
 Mulliken charges:
               1
     1  C    0.000000
     2  C    0.000000
     3  C    0.000000
     4  C    0.000000
     5  C    0.000000
     6  C    0.000000
     7  C    0.000000
     8  C    0.000000
     9  C    0.000000
    10  C    0.000000
    11  H    0.000000
    12  H    0.000000
    13  H    0.000000
    14  H    0.000000
    15  H    0.000000
    16  H    0.000000
    17  C    0.000000
    18  C    0.000000
    19  C    0.000000
    20  C    0.000000
    21  H    0.000000
    22  H    0.000000
    23  C    0.000000
    24  C    0.000000
    25  C    0.000000
    26  C    0.000000
    27  H    0.000000
    28  H    0.000000
    29  C    0.000000
    30  C    0.000000
    31  C    0.000000
    32  C    0.000000
    33  H    0.000000
    34  H    0.000000
    35  H    0.000000
    36  H    0.000000
    37  C   -0.059168
    38  C   -0.059168
    39  C   -0.055977
    40  C   -0.055977
    41  C   -0.092198
    42  C   -0.092198
    43  C   -0.016525
    44  C   -0.054498
    45  C   -0.016525
    46  C   -0.054498
    47  H    0.082122
    48  H    0.074853
    49  H    0.074853
    50  H    0.082122
    51  H    0.094847
    52  H    0.094847
    53  C   -0.020341
    54  C   -0.054498
    55  C   -0.020341
    56  C   -0.054498
    57  H    0.073428
    58  H    0.073428
    59  C   -0.016525
    60  C   -0.059168
    61  C   -0.016525
    62  C   -0.059168
    63  H    0.074853
    64  H    0.074853
    65  C   -0.055977
    66  C   -0.092198
    67  C   -0.055977
    68  C   -0.092198
    69  H    0.082122
    70  H    0.094847
    71  H    0.094847
    72  H    0.082122
 Sum of Mulliken charges =   0.00000
 Mulliken charges with hydrogens summed into heavy atoms:
               1
     1  C    0.000000
     2  C    0.000000
     3  C    0.000000
     4  C    0.000000
     5  C    0.000000
     6  C    0.000000
     7  C    0.000000
     8  C    0.000000
     9  C    0.000000
    10  C    0.000000
    17  C    0.000000
    18  C    0.000000
    19  C    0.000000
    20  C    0.000000
    23  C    0.000000
    24  C    0.000000
    25  C    0.000000
    26  C    0.000000
    29  C    0.000000
    30  C    0.000000
    31  C    0.000000
    32  C    0.000000
    37  C   -0.059168
    38  C   -0.059168
    39  C    0.026144
    40  C    0.026144
    41  C    0.002649
    42  C    0.002649
    43  C    0.058328
    44  C   -0.054498
    45  C    0.058328
    46  C   -0.054498
    53  C    0.053087
    54  C   -0.054498
    55  C    0.053087
    56  C   -0.054498
    59  C    0.058328
    60  C   -0.059168
    61  C    0.058328
    62  C   -0.059168
    65  C    0.026144
    66  C    0.002649
    67  C    0.026144
    68  C    0.002649
         Mulliken charges condensed to fragments:
      1      0.000000
      2      0.000000
 Electronic spatial extent (au):  <R**2>=          22332.5719
 Charge=              0.0000 electrons
 Dipole moment (field-independent basis, Debye):
    X=              0.0000    Y=              0.0000    Z=              0.0000  Tot=              0.0000
 Quadrupole moment (field-independent basis, Debye-Ang):
   XX=           -136.3921   YY=           -110.7480   ZZ=           -109.0115
   XY=              0.0000   XZ=              0.0000   YZ=              0.0000
 Traceless Quadrupole moment (field-independent basis, Debye-Ang):
   XX=            -17.6749   YY=              7.9692   ZZ=              9.7057
   XY=              0.0000   XZ=              0.0000   YZ=              0.0000
 Octapole moment (field-independent basis, Debye-Ang**2):
  XXX=           1446.6563  YYY=           1174.6603  ZZZ=              0.0000  XYY=            391.5534
  XXY=            482.2188  XXZ=              0.0000  XZZ=            385.4138  YZZ=            385.4138
  YYZ=              0.0000  XYZ=              0.0000
 Hexadecapole moment (field-independent basis, Debye-Ang**3):
 XXXX=         -10383.8084 YYYY=          -9422.8192 ZZZZ=         -10461.4324 XXXY=          -5114.7022
 XXXZ=              0.0000 YYYX=          -4153.0512 YYYZ=              0.0000 ZZZX=              0.0000
 ZZZY=              0.0000 XXYY=          -3345.6665 XXZZ=          -3570.5755 YYZZ=          -3331.8578
 XXYZ=              0.0000 YYXZ=              0.0000 ZZXY=          -1362.6434
 N-N= 1.494327111783D+03 E-N=-4.953709175103D+03  KE= 8.433374904921D+02
 Symmetry A'   KE= 4.567052305385D+02
 Symmetry A"   KE= 3.866322599536D+02
 No NMR shielding tensors so no spin-rotation constants.
 Leave Link  601 at Wed Sep 27 17:18:14 2023, MaxMem=  3221225472 cpu:              18.5 elap:               0.5
 (Enter /home/center/opt/aarch64/apps/gaussian16/c01/g16/l122.exe)
 CPIOFr:  IOpCl= 0 IRwI=-1 IRwCP=  731 ICalc=  4 LCPTot=     1419224 Len1MO=     3708034 IndFrg=    19959394
 Restoring MOs from calculation   1 to rwf.
 CPIOFr:  IOpCl= 0 IRwI=-2 IRwCP=  731 ICalc=  0 LCPTot=     1419224 Len1MO=     3708034 IndFrg=     5127258
 Counterpoise corrected energy =   -1694.040229966799
                   BSSE energy =      -0.000000958294
              sum of fragments =   -1694.039683044253
           complexation energy =      -0.34 kcal/mole (raw)
           complexation energy =      -0.34 kcal/mole (corrected)
 Leave Link  122 at Wed Sep 27 17:18:17 2023, MaxMem=  3221225472 cpu:               8.3 elap:               0.3
 (Enter /home/center/opt/aarch64/apps/gaussian16/c01/g16/l9999.exe)

 Test job not archived.
 1\1\GINC-FX0463\SP\RB3LYP\6-311G(d,p)\C44H28\Z40145W\27-Sep-2023\0\\#P
  TEST b3lyp/6-311G** EmpiricalDispersion=GD3 counterpoise=2\\pentacene
 _A1=0_A2=0_A3=45_p2\\0,1\C,0,-0.5039478476,0.5239478476,-3.6612755801\
 C,0,0.5239480325,-0.5039480325,-3.6612755629\C,0,-0.9861248463,1.00612
 48463,-4.9235927708\C,0,1.0061250889,-0.9861250889,-4.9235926697\C,0,-
 0.4963213507,0.5163213507,-6.096356521\C,0,0.5163216812,-0.4963216812,
 -6.0963564796\C,0,-0.9844684311,1.0044684311,-2.4533174875\C,0,-0.5044
 88426,0.524488426,-1.2140288145\C,0,1.0044685359,-0.9844685359,-2.4533
 173917\C,0,0.5244885437,-0.5044885437,-1.2140288362\H,0,-1.7533559667,
 1.7733559667,-4.9232600459\H,0,-1.7521866813,1.7721866813,-2.453928581
 5\H,0,1.7721859268,-1.7521859268,-2.4539284818\H,0,1.7733558421,-1.753
 3558421,-4.9232597785\H,0,0.8905568758,-0.8705568758,-7.0425276922\H,0
 ,-0.8705565046,0.8905565046,-7.042527775\C,0,-0.9848184961,1.004818496
 1,0.0099998782\C,0,-0.5044883957,0.5244883957,1.2340295553\C,0,1.00481
 85643,-0.9848185643,0.0099998696\C,0,0.5244885146,-0.5044885146,1.2340
 295261\H,0,-1.7524699697,1.7724699697,0.0099999205\H,0,1.772468921,-1.
 752468921,0.0099999641\C,0,-0.9844683048,1.0044683048,2.4733171385\C,0
 ,-0.5039477114,0.5239477114,3.681276331\C,0,1.0044684211,-0.9844684211
 ,2.4733170835\C,0,0.5239479079,-0.5039479079,3.6812763217\H,0,-1.75218
 65527,1.7721865527,2.4739285326\H,0,1.7721858092,-1.7521858092,2.47392
 83796\C,0,-0.9861245177,1.0061245177,4.9435920588\C,0,-0.4963209372,0.
 5163209372,6.116356633\C,0,1.0061247659,-0.9861247659,4.9435919377\C,0
 ,0.5163212637,-0.4963212637,6.1163566075\H,0,-1.7533556504,1.773355650
 4,4.9432601504\H,0,-0.8705567426,0.8905567426,7.0625274368\H,0,0.89055
 70967,-0.8705570967,7.0625272142\H,0,1.7733555414,-1.7533555414,4.9432
 599297\C,0,9.4960521524,0.5239478476,-3.6612755801\C,0,10.5239480325,-
 0.5039480325,-3.6612755629\C,0,9.0138751537,1.0061248463,-4.9235927708
 \C,0,11.0061250889,-0.9861250889,-4.9235926697\C,0,9.5036786493,0.5163
 213507,-6.096356521\C,0,10.5163216812,-0.4963216812,-6.0963564796\C,0,
 9.0155315689,1.0044684311,-2.4533174875\C,0,9.495511574,0.524488426,-1
 .2140288145\C,0,11.0044685359,-0.9844685359,-2.4533173917\C,0,10.52448
 85437,-0.5044885437,-1.2140288362\H,0,8.2466440333,1.7733559667,-4.923
 2600459\H,0,8.2478133187,1.7721866813,-2.4539285815\H,0,11.7721859268,
 -1.7521859268,-2.4539284818\H,0,11.7733558421,-1.7533558421,-4.9232597
 785\H,0,10.8905568758,-0.8705568758,-7.0425276922\H,0,9.1294434954,0.8
 905565046,-7.042527775\C,0,9.0151815039,1.0048184961,0.0099998782\C,0,
 9.4955116043,0.5244883957,1.2340295553\C,0,11.0048185643,-0.9848185643
 ,0.0099998696\C,0,10.5244885146,-0.5044885146,1.2340295261\H,0,8.24753
 00303,1.7724699697,0.0099999205\H,0,11.772468921,-1.752468921,0.009999
 9641\C,0,9.0155316952,1.0044683048,2.4733171385\C,0,9.4960522886,0.523
 9477114,3.681276331\C,0,11.0044684211,-0.9844684211,2.4733170835\C,0,1
 0.5239479079,-0.5039479079,3.6812763217\H,0,8.2478134473,1.7721865527,
 2.4739285326\H,0,11.7721858092,-1.7521858092,2.4739283796\C,0,9.013875
 4823,1.0061245177,4.9435920588\C,0,9.5036790628,0.5163209372,6.1163566
 33\C,0,11.0061247659,-0.9861247659,4.9435919377\C,0,10.5163212637,-0.4
 963212637,6.1163566075\H,0,8.2466443496,1.7733556504,4.9432601504\H,0,
 9.1294432574,0.8905567426,7.0625274368\H,0,10.8905570967,-0.8705570967
 ,7.0625272142\H,0,11.7733555414,-1.7533555414,4.9432599297\\Version=Fu
 jitsu-Arm-G16RevC.01\State=1-A'\HF=-847.0198415\RMSD=3.182e-09\Dipole=
 0.0000227,-0.0000226,0.\Quadrupole=-7.6280211,-6.8130483,14.4410694,-1
 8.596404,0.,0.\PG=CS [SG(C4H4),X(C40H24)]\\@


 TO DRY ONE'S EYES AND LAUGH AT A FALL
 AND BAFFLED, GET UP AND BEGIN AGAIN.
           R. BROWNING
 Job cpu time:       0 days  2 hours 33 minutes 42.4 seconds.
 Elapsed time:       0 days  0 hours  4 minutes  5.7 seconds.
 File lengths (MBytes):  RWF=    718 Int=      0 D2E=      0 Chk=    208 Scr=      1
 Normal termination of Gaussian 16 at Wed Sep 27 17:18:23 2023.
