 Entering Gaussian System, Link 0=g16
 Initial command:
 /home/center/opt/aarch64/apps/gaussian16/c01/g16/l1.exe "/data/tmp/Gtmp/1006928/Gau-51.inp" -scrdir="/data/tmp/Gtmp/1006928/"
 Entering Link 1 = /home/center/opt/aarch64/apps/gaussian16/c01/g16/l1.exe PID=        52.
  
 Copyright (c) 1988-2019, Gaussian, Inc.  All Rights Reserved.
  
 This is part of the Gaussian(R) 16 program.  It is based on
 the Gaussian(R) 09 system (copyright 2009, Gaussian, Inc.),
 the Gaussian(R) 03 system (copyright 2003, Gaussian, Inc.),
 the Gaussian(R) 98 system (copyright 1998, Gaussian, Inc.),
 the Gaussian(R) 94 system (copyright 1995, Gaussian, Inc.),
 the Gaussian 92(TM) system (copyright 1992, Gaussian, Inc.),
 the Gaussian 90(TM) system (copyright 1990, Gaussian, Inc.),
 the Gaussian 88(TM) system (copyright 1988, Gaussian, Inc.),
 the Gaussian 86(TM) system (copyright 1986, Carnegie Mellon
 University), and the Gaussian 82(TM) system (copyright 1983,
 Carnegie Mellon University). Gaussian is a federally registered
 trademark of Gaussian, Inc.
  
 This software contains proprietary and confidential information,
 including trade secrets, belonging to Gaussian, Inc.
  
 This software is provided under written license and may be
 used, copied, transmitted, or stored only in accord with that
 written license.
  
 The following legend is applicable only to US Government
 contracts under FAR:
  
                    RESTRICTED RIGHTS LEGEND
  
 Use, reproduction and disclosure by the US Government is
 subject to restrictions as set forth in subparagraphs (a)
 and (c) of the Commercial Computer Software - Restricted
 Rights clause in FAR 52.227-19.
  
 Gaussian, Inc.
 340 Quinnipiac St., Bldg. 40, Wallingford CT 06492
  
  
 ---------------------------------------------------------------
 Warning -- This program may not be used in any manner that
 competes with the business of Gaussian, Inc. or will provide
 assistance to any competitor of Gaussian, Inc.  The licensee
 of this program is prohibited from giving any competitor of
 Gaussian, Inc. access to this program.  By using this program,
 the user acknowledges that Gaussian, Inc. is engaged in the
 business of creating and licensing software in the field of
 computational chemistry and represents and warrants to the
 licensee that it is not a competitor of Gaussian, Inc. and that
 it will not use this program in any manner prohibited above.
 ---------------------------------------------------------------
  

 Cite this work as:
 Gaussian 16, Revision C.01,
 M. J. Frisch, G. W. Trucks, H. B. Schlegel, G. E. Scuseria, 
 M. A. Robb, J. R. Cheeseman, G. Scalmani, V. Barone, 
 G. A. Petersson, H. Nakatsuji, X. Li, M. Caricato, A. V. Marenich, 
 J. Bloino, B. G. Janesko, R. Gomperts, B. Mennucci, H. P. Hratchian, 
 J. V. Ortiz, A. F. Izmaylov, J. L. Sonnenberg, D. Williams-Young, 
 F. Ding, F. Lipparini, F. Egidi, J. Goings, B. Peng, A. Petrone, 
 T. Henderson, D. Ranasinghe, V. G. Zakrzewski, J. Gao, N. Rega, 
 G. Zheng, W. Liang, M. Hada, M. Ehara, K. Toyota, R. Fukuda, 
 J. Hasegawa, M. Ishida, T. Nakajima, Y. Honda, O. Kitao, H. Nakai, 
 T. Vreven, K. Throssell, J. A. Montgomery, Jr., J. E. Peralta, 
 F. Ogliaro, M. J. Bearpark, J. J. Heyd, E. N. Brothers, K. N. Kudin, 
 V. N. Staroverov, T. A. Keith, R. Kobayashi, J. Normand, 
 K. Raghavachari, A. P. Rendell, J. C. Burant, S. S. Iyengar, 
 J. Tomasi, M. Cossi, J. M. Millam, M. Klene, C. Adamo, R. Cammi, 
 J. W. Ochterski, R. L. Martin, K. Morokuma, O. Farkas, 
 J. B. Foresman, and D. J. Fox, Gaussian, Inc., Wallingford CT, 2019.
 
 ************************************************
 Gaussian 16:  Fujitsu-Arm-G16RevC.01  3-Jul-2019
                   27-Sep-2023 
 ************************************************
 %mem=24GB
 %nproc=42
 Will use up to   42 processors via shared memory.
 -------------------------------------------------------------
 #P TEST b3lyp/6-311G** EmpiricalDispersion=GD3 counterpoise=2
 -------------------------------------------------------------
 1/38=1,62=2,172=1/1;
 2/12=2,17=6,18=5,40=1/2;
 1/38=1,53=2,62=2,63=1/22;
 3/5=4,6=6,7=101,11=2,25=1,30=1,74=-5,124=31/1,2,3;
 4//1;
 5/5=2,38=5/2;
 6/7=2,8=2,9=2,10=2,28=1/1;
 1/53=2,62=2,63=1/22;
 3/5=7,6=11,7=101,11=2,25=1,30=1,74=-5,82=7,124=31/1,2,3;
 4//1;
 5/5=2,38=5/2;
 6/7=2,8=2,9=2,10=2,28=1/1;
 1/53=2,62=2,63=1/22(-4);
 99/5=1,9=1/99;
 Leave Link    1 at Wed Sep 27 16:37:38 2023, MaxMem=  3221225472 cpu:               6.8 elap:               0.2
 (Enter /home/center/opt/aarch64/apps/gaussian16/c01/g16/l101.exe)
 ----------------------------
 pentacene_A1=0_A2=0_A3=45_t1
 ----------------------------
 Symbolic Z-matrix:
 Charge =  0 Multiplicity = 1 in supermolecule
 Charge =  0 Multiplicity = 1 in fragment      1.
 Charge =  0 Multiplicity = 1 in fragment      2.
 C(Fragment=1)        -0.50395   0.52395  -3.66128 
 C(Fragment=1)         0.52395  -0.50395  -3.66128 
 C(Fragment=1)        -0.98612   1.00612  -4.92359 
 C(Fragment=1)         1.00613  -0.98613  -4.92359 
 C(Fragment=1)        -0.49632   0.51632  -6.09636 
 C(Fragment=1)         0.51632  -0.49632  -6.09636 
 C(Fragment=1)        -0.98447   1.00447  -2.45332 
 C(Fragment=1)        -0.50449   0.52449  -1.21403 
 C(Fragment=1)         1.00447  -0.98447  -2.45332 
 C(Fragment=1)         0.52449  -0.50449  -1.21403 
 H(Fragment=1)        -1.75336   1.77336  -4.92326 
 H(Fragment=1)        -1.75219   1.77219  -2.45393 
 H(Fragment=1)         1.77219  -1.75219  -2.45393 
 H(Fragment=1)         1.77336  -1.75336  -4.92326 
 H(Fragment=1)         0.89056  -0.87056  -7.04253 
 H(Fragment=1)        -0.87056   0.89056  -7.04253 
 C(Fragment=1)        -0.98482   1.00482   0.01 
 C(Fragment=1)        -0.50449   0.52449   1.23403 
 C(Fragment=1)         1.00482  -0.98482   0.01 
 C(Fragment=1)         0.52449  -0.50449   1.23403 
 H(Fragment=1)        -1.75247   1.77247   0.01 
 H(Fragment=1)         1.77247  -1.75247   0.01 
 C(Fragment=1)        -0.98447   1.00447   2.47332 
 C(Fragment=1)        -0.50395   0.52395   3.68128 
 C(Fragment=1)         1.00447  -0.98447   2.47332 
 C(Fragment=1)         0.52395  -0.50395   3.68128 
 H(Fragment=1)        -1.75219   1.77219   2.47393 
 H(Fragment=1)         1.77219  -1.75219   2.47393 
 C(Fragment=1)        -0.98612   1.00612   4.94359 
 C(Fragment=1)        -0.49632   0.51632   6.11636 
 C(Fragment=1)         1.00612  -0.98612   4.94359 
 C(Fragment=1)         0.51632  -0.49632   6.11636 
 H(Fragment=1)        -1.75336   1.77336   4.94326 
 H(Fragment=1)        -0.87056   0.89056   7.06253 
 H(Fragment=1)         0.89056  -0.87056   7.06253 
 H(Fragment=1)         1.77336  -1.75336   4.94326 
 C(Fragment=2)         3.02395   5.02395  -3.66128 
 C(Fragment=2)         1.99605   3.99605  -3.66128 
 C(Fragment=2)         3.50612   5.50612  -4.92359 
 C(Fragment=2)         1.51387   3.51387  -4.92359 
 C(Fragment=2)         3.01632   5.01632  -6.09636 
 C(Fragment=2)         2.00368   4.00368  -6.09636 
 C(Fragment=2)         3.50447   5.50447  -2.45332 
 C(Fragment=2)         3.02449   5.02449  -1.21403 
 C(Fragment=2)         1.51553   3.51553  -2.45332 
 C(Fragment=2)         1.99551   3.99551  -1.21403 
 H(Fragment=2)         4.27336   6.27336  -4.92326 
 H(Fragment=2)         4.27219   6.27219  -2.45393 
 H(Fragment=2)         0.74781   2.74781  -2.45393 
 H(Fragment=2)         0.74664   2.74664  -4.92326 
 H(Fragment=2)         1.62944   3.62944  -7.04253 
 H(Fragment=2)         3.39056   5.39056  -7.04253 
 C(Fragment=2)         3.50482   5.50482   0.01 
 C(Fragment=2)         3.02449   5.02449   1.23403 
 C(Fragment=2)         1.51518   3.51518   0.01 
 C(Fragment=2)         1.99551   3.99551   1.23403 
 H(Fragment=2)         4.27247   6.27247   0.01 
 H(Fragment=2)         0.74753   2.74753   0.01 
 C(Fragment=2)         3.50447   5.50447   2.47332 
 C(Fragment=2)         3.02395   5.02395   3.68128 
 C(Fragment=2)         1.51553   3.51553   2.47332 
 C(Fragment=2)         1.99605   3.99605   3.68128 
 H(Fragment=2)         4.27219   6.27219   2.47393 
 H(Fragment=2)         0.74781   2.74781   2.47393 
 C(Fragment=2)         3.50612   5.50612   4.94359 
 C(Fragment=2)         3.01632   5.01632   6.11636 
 C(Fragment=2)         1.51388   3.51388   4.94359 
 C(Fragment=2)         2.00368   4.00368   6.11636 
 H(Fragment=2)         4.27336   6.27336   4.94326 
 H(Fragment=2)         3.39056   5.39056   7.06253 
 H(Fragment=2)         1.62944   3.62944   7.06253 
 H(Fragment=2)         0.74664   2.74664   4.94326 
 
 ITRead=  0  0  0  0  0  0  0  0  0  0  0  0  0  0  0  0  0  0  0  0
 ITRead=  0  0  0  0  0  0  0  0  0  0  0  0  0  0  0  0  0  0  0  0
 ITRead=  0  0  0  0  0  0  0  0  0  0  0  0  0  0  0  0  0  0  0  0
 ITRead=  0  0  0  0  0  0  0  0  0  0  0  0
 MicOpt= -1 -1 -1 -1 -1 -1 -1 -1 -1 -1 -1 -1 -1 -1 -1 -1 -1 -1 -1 -1
 MicOpt= -1 -1 -1 -1 -1 -1 -1 -1 -1 -1 -1 -1 -1 -1 -1 -1 -1 -1 -1 -1
 MicOpt= -1 -1 -1 -1 -1 -1 -1 -1 -1 -1 -1 -1 -1 -1 -1 -1 -1 -1 -1 -1
 MicOpt= -1 -1 -1 -1 -1 -1 -1 -1 -1 -1 -1 -1
 NAtoms=     72 NQM=       72 NQMF=       0 NMMI=      0 NMMIF=      0
                NMic=       0 NMicF=      0.
                    Isotopes and Nuclear Properties:
 (Nuclear quadrupole moments (NQMom) in fm**2, nuclear magnetic moments (NMagM)
  in nuclear magnetons)

  Atom         1           2           3           4           5           6           7           8           9          10
 IAtWgt=          12          12          12          12          12          12          12          12          12          12
 AtmWgt=  12.0000000  12.0000000  12.0000000  12.0000000  12.0000000  12.0000000  12.0000000  12.0000000  12.0000000  12.0000000
 NucSpn=           0           0           0           0           0           0           0           0           0           0
 AtZEff=   0.0000000   0.0000000   0.0000000   0.0000000   0.0000000   0.0000000   0.0000000   0.0000000   0.0000000   0.0000000
 NQMom=    0.0000000   0.0000000   0.0000000   0.0000000   0.0000000   0.0000000   0.0000000   0.0000000   0.0000000   0.0000000
 NMagM=    0.0000000   0.0000000   0.0000000   0.0000000   0.0000000   0.0000000   0.0000000   0.0000000   0.0000000   0.0000000
 AtZNuc=   6.0000000   6.0000000   6.0000000   6.0000000   6.0000000   6.0000000   6.0000000   6.0000000   6.0000000   6.0000000

  Atom        11          12          13          14          15          16          17          18          19          20
 IAtWgt=           1           1           1           1           1           1          12          12          12          12
 AtmWgt=   1.0078250   1.0078250   1.0078250   1.0078250   1.0078250   1.0078250  12.0000000  12.0000000  12.0000000  12.0000000
 NucSpn=           1           1           1           1           1           1           0           0           0           0
 AtZEff=   0.0000000   0.0000000   0.0000000   0.0000000   0.0000000   0.0000000   0.0000000   0.0000000   0.0000000   0.0000000
 NQMom=    0.0000000   0.0000000   0.0000000   0.0000000   0.0000000   0.0000000   0.0000000   0.0000000   0.0000000   0.0000000
 NMagM=    2.7928460   2.7928460   2.7928460   2.7928460   2.7928460   2.7928460   0.0000000   0.0000000   0.0000000   0.0000000
 AtZNuc=   1.0000000   1.0000000   1.0000000   1.0000000   1.0000000   1.0000000   6.0000000   6.0000000   6.0000000   6.0000000

  Atom        21          22          23          24          25          26          27          28          29          30
 IAtWgt=           1           1          12          12          12          12           1           1          12          12
 AtmWgt=   1.0078250   1.0078250  12.0000000  12.0000000  12.0000000  12.0000000   1.0078250   1.0078250  12.0000000  12.0000000
 NucSpn=           1           1           0           0           0           0           1           1           0           0
 AtZEff=   0.0000000   0.0000000   0.0000000   0.0000000   0.0000000   0.0000000   0.0000000   0.0000000   0.0000000   0.0000000
 NQMom=    0.0000000   0.0000000   0.0000000   0.0000000   0.0000000   0.0000000   0.0000000   0.0000000   0.0000000   0.0000000
 NMagM=    2.7928460   2.7928460   0.0000000   0.0000000   0.0000000   0.0000000   2.7928460   2.7928460   0.0000000   0.0000000
 AtZNuc=   1.0000000   1.0000000   6.0000000   6.0000000   6.0000000   6.0000000   1.0000000   1.0000000   6.0000000   6.0000000

  Atom        31          32          33          34          35          36          37          38          39          40
 IAtWgt=          12          12           1           1           1           1          12          12          12          12
 AtmWgt=  12.0000000  12.0000000   1.0078250   1.0078250   1.0078250   1.0078250  12.0000000  12.0000000  12.0000000  12.0000000
 NucSpn=           0           0           1           1           1           1           0           0           0           0
 AtZEff=   0.0000000   0.0000000   0.0000000   0.0000000   0.0000000   0.0000000   0.0000000   0.0000000   0.0000000   0.0000000
 NQMom=    0.0000000   0.0000000   0.0000000   0.0000000   0.0000000   0.0000000   0.0000000   0.0000000   0.0000000   0.0000000
 NMagM=    0.0000000   0.0000000   2.7928460   2.7928460   2.7928460   2.7928460   0.0000000   0.0000000   0.0000000   0.0000000
 AtZNuc=   6.0000000   6.0000000   1.0000000   1.0000000   1.0000000   1.0000000   6.0000000   6.0000000   6.0000000   6.0000000

  Atom        41          42          43          44          45          46          47          48          49          50
 IAtWgt=          12          12          12          12          12          12           1           1           1           1
 AtmWgt=  12.0000000  12.0000000  12.0000000  12.0000000  12.0000000  12.0000000   1.0078250   1.0078250   1.0078250   1.0078250
 NucSpn=           0           0           0           0           0           0           1           1           1           1
 AtZEff=   0.0000000   0.0000000   0.0000000   0.0000000   0.0000000   0.0000000   0.0000000   0.0000000   0.0000000   0.0000000
 NQMom=    0.0000000   0.0000000   0.0000000   0.0000000   0.0000000   0.0000000   0.0000000   0.0000000   0.0000000   0.0000000
 NMagM=    0.0000000   0.0000000   0.0000000   0.0000000   0.0000000   0.0000000   2.7928460   2.7928460   2.7928460   2.7928460
 AtZNuc=   6.0000000   6.0000000   6.0000000   6.0000000   6.0000000   6.0000000   1.0000000   1.0000000   1.0000000   1.0000000

  Atom        51          52          53          54          55          56          57          58          59          60
 IAtWgt=           1           1          12          12          12          12           1           1          12          12
 AtmWgt=   1.0078250   1.0078250  12.0000000  12.0000000  12.0000000  12.0000000   1.0078250   1.0078250  12.0000000  12.0000000
 NucSpn=           1           1           0           0           0           0           1           1           0           0
 AtZEff=   0.0000000   0.0000000   0.0000000   0.0000000   0.0000000   0.0000000   0.0000000   0.0000000   0.0000000   0.0000000
 NQMom=    0.0000000   0.0000000   0.0000000   0.0000000   0.0000000   0.0000000   0.0000000   0.0000000   0.0000000   0.0000000
 NMagM=    2.7928460   2.7928460   0.0000000   0.0000000   0.0000000   0.0000000   2.7928460   2.7928460   0.0000000   0.0000000
 AtZNuc=   1.0000000   1.0000000   6.0000000   6.0000000   6.0000000   6.0000000   1.0000000   1.0000000   6.0000000   6.0000000

  Atom        61          62          63          64          65          66          67          68          69          70
 IAtWgt=          12          12           1           1          12          12          12          12           1           1
 AtmWgt=  12.0000000  12.0000000   1.0078250   1.0078250  12.0000000  12.0000000  12.0000000  12.0000000   1.0078250   1.0078250
 NucSpn=           0           0           1           1           0           0           0           0           1           1
 AtZEff=   0.0000000   0.0000000   0.0000000   0.0000000   0.0000000   0.0000000   0.0000000   0.0000000   0.0000000   0.0000000
 NQMom=    0.0000000   0.0000000   0.0000000   0.0000000   0.0000000   0.0000000   0.0000000   0.0000000   0.0000000   0.0000000
 NMagM=    0.0000000   0.0000000   2.7928460   2.7928460   0.0000000   0.0000000   0.0000000   0.0000000   2.7928460   2.7928460
 AtZNuc=   6.0000000   6.0000000   1.0000000   1.0000000   6.0000000   6.0000000   6.0000000   6.0000000   1.0000000   1.0000000

  Atom        71          72
 IAtWgt=           1           1
 AtmWgt=   1.0078250   1.0078250
 NucSpn=           1           1
 AtZEff=   0.0000000   0.0000000
 NQMom=    0.0000000   0.0000000
 NMagM=    2.7928460   2.7928460
 AtZNuc=   1.0000000   1.0000000
 Leave Link  101 at Wed Sep 27 16:37:40 2023, MaxMem=  3221225472 cpu:               2.5 elap:               0.1
 (Enter /home/center/opt/aarch64/apps/gaussian16/c01/g16/l202.exe)
 Stoichiometry    C44H28
 Framework group  CS[SG(C4H4),X(C40H24)]
 Deg. of freedom   109
 Full point group                 CS      NOp   2
 Largest Abelian subgroup         CS      NOp   2
 Largest concise Abelian subgroup CS      NOp   2
                         Standard orientation:                         
 ---------------------------------------------------------------------
 Center     Atomic      Atomic             Coordinates (Angstroms)
 Number     Number       Type             X           Y           Z
 ---------------------------------------------------------------------
      1          6           0        0.019725   -2.474874    3.671276
      2          6           0       -1.433939   -2.474874    3.671276
      3          6           0        0.701627   -2.474874    4.933593
      4          6           0       -2.115840   -2.474874    4.933593
      5          6           0        0.008940   -2.474874    6.106357
      6          6           0       -1.423154   -2.474874    6.106357
      7          6           0        0.699284   -2.474874    2.463318
      8          6           0        0.020490   -2.474874    1.224029
      9          6           0       -2.113498   -2.474874    2.463317
     10          6           0       -1.434703   -2.474874    1.224029
     11          1           0        1.786655   -2.474874    4.933260
     12          1           0        1.785002   -2.474874    2.463929
     13          1           0       -3.199214   -2.474874    2.463929
     14          1           0       -3.200868   -2.474874    4.933260
     15          1           0       -1.952402   -2.474874    7.052528
     16          1           0        0.538188   -2.474874    7.052528
     17          6           0        0.699779   -2.474874    0.000000
     18          6           0        0.020490   -2.474874   -1.224029
     19          6           0       -2.113993   -2.474874    0.000000
     20          6           0       -1.434703   -2.474874   -1.224029
     21          1           0        1.785402   -2.474874    0.000000
     22          1           0       -3.199614   -2.474874    0.000000
     23          6           0        0.699284   -2.474874   -2.463318
     24          6           0        0.019725   -2.474874   -3.671276
     25          6           0       -2.113498   -2.474874   -2.463317
     26          6           0       -1.433939   -2.474874   -3.671276
     27          1           0        1.785002   -2.474874   -2.463929
     28          1           0       -3.199214   -2.474874   -2.463929
     29          6           0        0.701627   -2.474874   -4.933593
     30          6           0        0.008940   -2.474874   -6.106357
     31          6           0       -2.115840   -2.474874   -4.933593
     32          6           0       -1.423154   -2.474874   -6.106357
     33          1           0        1.786655   -2.474874   -4.933260
     34          1           0        0.538188   -2.474874   -7.052528
     35          1           0       -1.952402   -2.474874   -7.052528
     36          1           0       -3.200868   -2.474874   -4.933260
     37          6           0        0.707107    3.201706    3.671276
     38          6           0        0.707107    1.748042    3.671276
     39          6           0        0.707107    3.883607    4.933593
     40          6           0        0.707107    1.066140    4.933593
     41          6           0        0.707107    3.190920    6.106357
     42          6           0        0.707107    1.758827    6.106357
     43          6           0        0.707107    3.881265    2.463318
     44          6           0        0.707107    3.202470    1.224029
     45          6           0        0.707107    1.068483    2.463317
     46          6           0        0.707107    1.747277    1.224029
     47          1           0        0.707107    4.968636    4.933260
     48          1           0        0.707107    4.966982    2.463929
     49          1           0        0.707107   -0.017233    2.463929
     50          1           0        0.707107   -0.018888    4.933260
     51          1           0        0.707107    1.229578    7.052528
     52          1           0        0.707107    3.720169    7.052528
     53          6           0        0.707107    3.881760    0.000000
     54          6           0        0.707107    3.202470   -1.224029
     55          6           0        0.707107    1.067988    0.000000
     56          6           0        0.707107    1.747277   -1.224029
     57          1           0        0.707107    4.967383    0.000000
     58          1           0        0.707107   -0.017634    0.000000
     59          6           0        0.707107    3.881265   -2.463318
     60          6           0        0.707107    3.201706   -3.671276
     61          6           0        0.707107    1.068483   -2.463317
     62          6           0        0.707107    1.748042   -3.671276
     63          1           0        0.707107    4.966982   -2.463929
     64          1           0        0.707107   -0.017233   -2.463929
     65          6           0        0.707107    3.883607   -4.933593
     66          6           0        0.707107    3.190920   -6.106357
     67          6           0        0.707107    1.066140   -4.933593
     68          6           0        0.707107    1.758827   -6.106357
     69          1           0        0.707107    4.968636   -4.933260
     70          1           0        0.707107    3.720169   -7.052528
     71          1           0        0.707107    1.229578   -7.052528
     72          1           0        0.707107   -0.018888   -4.933260
 ---------------------------------------------------------------------
 Rotational constants (GHZ):           0.1135970           0.0563744           0.0399520
 Leave Link  202 at Wed Sep 27 16:37:42 2023, MaxMem=  3221225472 cpu:               0.6 elap:               0.0
 (Enter /home/center/opt/aarch64/apps/gaussian16/c01/g16/l122.exe)
 Counterpoise: doing full-system calculation.
 Leave Link  122 at Wed Sep 27 16:37:44 2023, MaxMem=  3221225472 cpu:               0.2 elap:               0.0
 (Enter /home/center/opt/aarch64/apps/gaussian16/c01/g16/l301.exe)
 Standard basis: 6-311G(d,p) (5D, 7F)
 Ernie: Thresh=  0.10000D-02 Tol=  0.10000D-05 Strict=F.
 There are   528 symmetry adapted cartesian basis functions of A'  symmetry.
 There are   476 symmetry adapted cartesian basis functions of A"  symmetry.
 There are   504 symmetry adapted basis functions of A'  symmetry.
 There are   456 symmetry adapted basis functions of A"  symmetry.
   960 basis functions,  1632 primitive gaussians,  1004 cartesian basis functions
   146 alpha electrons      146 beta electrons
       nuclear repulsion energy      4665.4191706592 Hartrees.
 IExCor=  402 DFT=T Ex+Corr=B3LYP ExCW=0 ScaHFX=  0.200000
 ScaDFX=  0.800000  0.720000  1.000000  0.810000 ScalE2=  1.000000  1.000000
 IRadAn=      5 IRanWt=     -1 IRanGd=            0 ICorTp=0 IEmpDi=131
 NAtoms=   72 NActive=   72 NUniq=   40 SFac= 3.24D+00 NAtFMM=   60 NAOKFM=T Big=F
 Integral buffers will be    131072 words long.
 Raffenetti 2 integral format.
 Two-electron integral symmetry is turned on.
 R6Disp:  Grimme-D3 Dispersion energy=       -0.0844378488 Hartrees.
 Nuclear repulsion after empirical dispersion term =     4665.3347328105 Hartrees.
 Leave Link  301 at Wed Sep 27 16:37:47 2023, MaxMem=  3221225472 cpu:               2.1 elap:               0.1
 (Enter /home/center/opt/aarch64/apps/gaussian16/c01/g16/l302.exe)
 NPDir=0 NMtPBC=     1 NCelOv=     1 NCel=       1 NClECP=     1 NCelD=      1
         NCelK=      1 NCelE2=     1 NClLst=     1 CellRange=     0.0.
 One-electron integrals computed using PRISM.
 One-electron integral symmetry used in STVInt
 NBasis=   960 RedAO= T EigKep=  3.67D-05  NBF=   504   456
 NBsUse=   960 1.00D-06 EigRej= -1.00D+00 NBFU=   504   456
 Precomputing XC quadrature grid using
 IXCGrd= 4 IRadAn=           5 IRanWt=          -1 IRanGd=           0 AccXCQ= 0.00D+00.
 Generated NRdTot=       0 NPtTot=           0 NUsed=           0 NTot=          32
 NSgBfM=   991   991   991   991   991 MxSgAt=    72 MxSgA2=    72.
 Leave Link  302 at Wed Sep 27 16:37:51 2023, MaxMem=  3221225472 cpu:              64.4 elap:               2.0
 (Enter /home/center/opt/aarch64/apps/gaussian16/c01/g16/l303.exe)
 DipDrv:  MaxL=1.
 Leave Link  303 at Wed Sep 27 16:37:54 2023, MaxMem=  3221225472 cpu:              13.7 elap:               0.4
 (Enter /home/center/opt/aarch64/apps/gaussian16/c01/g16/l401.exe)
 ExpMin= 1.03D-01 ExpMax= 4.56D+03 ExpMxC= 6.82D+02 IAcc=3 IRadAn=         5 AccDes= 0.00D+00
 Harris functional with IExCor=  402 and IRadAn=       5 diagonalized for initial guess.
 HarFok:  IExCor=  402 AccDes= 0.00D+00 IRadAn=         5 IDoV= 1 UseB2=F ITyADJ=14
 ICtDFT=  3500011 ScaDFX=  1.000000  1.000000  1.000000  1.000000
 FoFCou: FMM=F IPFlag=           0 FMFlag=      100000 FMFlg1=        2000
         NFxFlg=           0 DoJE=T BraDBF=F KetDBF=T FulRan=T
         wScrn=  0.000000 ICntrl=       500 IOpCl=  0 I1Cent=   200000004 NGrid=           0
         NMat0=    1 NMatS0=      1 NMatT0=    0 NMatD0=    1 NMtDS0=    0 NMtDT0=    0
 Petite list used in FoFCou.
 Harris En= -1694.13493579106    
 JPrj=0 DoOrth=F DoCkMO=F.
 Initial guess orbital symmetries:
       Occupied  (A") (A') (A") (A') (A") (A') (A') (A") (A") (A')
                 (A") (A') (A") (A') (A") (A') (A") (A') (A') (A")
                 (A') (A") (A') (A") (A') (A') (A') (A') (A") (A')
                 (A") (A') (A") (A') (A") (A') (A") (A') (A") (A')
                 (A") (A') (A') (A") (A') (A') (A") (A") (A') (A')
                 (A") (A") (A') (A') (A') (A') (A") (A") (A') (A')
                 (A") (A") (A") (A") (A') (A') (A') (A') (A") (A")
                 (A") (A") (A') (A') (A") (A") (A') (A') (A') (A')
                 (A') (A') (A") (A") (A") (A") (A') (A") (A") (A')
                 (A') (A') (A") (A") (A') (A') (A') (A') (A") (A")
                 (A') (A') (A") (A") (A") (A") (A') (A') (A') (A')
                 (A") (A") (A') (A') (A") (A") (A') (A') (A") (A")
                 (A") (A") (A') (A') (A') (A') (A") (A") (A') (A')
                 (A") (A") (A') (A') (A") (A") (A') (A') (A') (A')
                 (A") (A") (A") (A") (A') (A')
       Virtual   (A') (A') (A") (A") (A") (A") (A') (A') (A') (A')
                 (A") (A") (A') (A') (A") (A") (A') (A") (A') (A')
                 (A') (A') (A") (A') (A") (A') (A") (A") (A') (A')
                 (A") (A") (A') (A") (A") (A') (A') (A") (A') (A')
                 (A") (A") (A') (A') (A") (A') (A") (A') (A') (A')
                 (A') (A") (A') (A") (A') (A') (A") (A") (A') (A')
                 (A") (A") (A") (A") (A') (A') (A") (A") (A") (A')
                 (A') (A") (A') (A') (A") (A') (A") (A") (A') (A")
                 (A') (A') (A') (A") (A") (A') (A') (A') (A") (A')
                 (A') (A") (A") (A') (A") (A") (A') (A") (A') (A')
                 (A") (A') (A") (A") (A') (A") (A') (A') (A") (A')
                 (A') (A") (A') (A') (A") (A') (A") (A') (A') (A")
                 (A") (A') (A') (A") (A") (A') (A") (A") (A') (A')
                 (A") (A") (A') (A") (A') (A") (A') (A') (A') (A")
                 (A") (A') (A") (A') (A") (A') (A') (A') (A') (A")
                 (A') (A") (A') (A") (A") (A') (A") (A') (A") (A")
                 (A') (A') (A") (A') (A") (A') (A") (A") (A') (A')
                 (A') (A') (A") (A") (A") (A') (A") (A') (A') (A')
                 (A") (A') (A") (A') (A") (A') (A") (A') (A") (A')
                 (A') (A") (A') (A") (A") (A') (A") (A') (A') (A")
                 (A") (A') (A') (A") (A') (A') (A") (A') (A") (A")
                 (A') (A') (A") (A") (A') (A") (A') (A") (A") (A')
                 (A') (A") (A") (A') (A") (A') (A') (A") (A') (A")
                 (A') (A') (A') (A") (A') (A') (A") (A") (A") (A')
                 (A') (A") (A") (A') (A") (A') (A") (A') (A") (A")
                 (A') (A') (A") (A') (A") (A') (A") (A') (A') (A')
                 (A") (A') (A") (A") (A') (A") (A") (A') (A') (A")
                 (A") (A") (A") (A') (A') (A') (A') (A") (A") (A")
                 (A') (A") (A') (A') (A") (A') (A') (A') (A") (A')
                 (A") (A') (A") (A") (A') (A") (A") (A") (A") (A')
                 (A') (A") (A') (A') (A') (A') (A') (A") (A") (A')
                 (A") (A") (A") (A') (A") (A") (A') (A') (A') (A')
                 (A') (A") (A") (A') (A") (A') (A') (A") (A") (A')
                 (A") (A") (A') (A") (A') (A') (A") (A') (A") (A')
                 (A') (A") (A') (A") (A') (A") (A') (A") (A') (A")
                 (A') (A") (A') (A") (A') (A') (A') (A') (A") (A')
                 (A") (A') (A') (A") (A") (A') (A") (A") (A") (A")
                 (A") (A') (A') (A") (A') (A") (A") (A') (A') (A')
                 (A") (A') (A') (A') (A') (A") (A") (A') (A") (A")
                 (A') (A') (A') (A') (A") (A") (A") (A') (A") (A')
                 (A") (A') (A') (A") (A') (A") (A') (A") (A") (A')
                 (A") (A') (A') (A') (A") (A') (A') (A") (A") (A')
                 (A') (A') (A') (A") (A") (A") (A') (A') (A') (A")
                 (A") (A") (A") (A") (A') (A") (A') (A") (A') (A")
                 (A') (A") (A') (A") (A') (A") (A') (A") (A') (A")
                 (A') (A') (A') (A") (A") (A") (A') (A') (A') (A")
                 (A') (A") (A') (A") (A") (A') (A") (A') (A') (A")
                 (A") (A') (A") (A') (A") (A') (A") (A') (A') (A")
                 (A') (A") (A") (A') (A') (A") (A") (A") (A') (A')
                 (A") (A") (A') (A") (A") (A") (A") (A') (A') (A')
                 (A") (A') (A") (A') (A") (A') (A') (A') (A") (A")
                 (A') (A') (A') (A') (A") (A") (A") (A') (A") (A')
                 (A") (A") (A') (A') (A") (A') (A') (A") (A') (A")
                 (A') (A") (A') (A") (A") (A') (A") (A') (A") (A')
                 (A") (A") (A') (A') (A') (A") (A") (A") (A') (A")
                 (A') (A") (A') (A') (A") (A") (A") (A') (A') (A')
                 (A") (A") (A') (A') (A') (A') (A") (A") (A') (A")
                 (A') (A") (A") (A') (A") (A') (A') (A") (A") (A')
                 (A') (A') (A") (A') (A") (A") (A') (A') (A") (A')
                 (A') (A') (A") (A') (A") (A') (A") (A') (A") (A')
                 (A") (A') (A') (A") (A") (A') (A") (A') (A') (A")
                 (A") (A') (A") (A') (A") (A') (A') (A") (A") (A")
                 (A') (A') (A") (A') (A") (A') (A") (A') (A') (A")
                 (A') (A') (A') (A") (A") (A") (A') (A") (A') (A")
                 (A") (A') (A") (A') (A') (A") (A") (A') (A') (A')
                 (A') (A") (A') (A') (A") (A') (A") (A') (A") (A')
                 (A') (A") (A") (A") (A') (A") (A') (A') (A") (A')
                 (A') (A") (A") (A') (A") (A') (A") (A") (A') (A')
                 (A") (A') (A') (A") (A') (A") (A") (A') (A") (A")
                 (A') (A') (A") (A') (A") (A') (A') (A") (A") (A')
                 (A") (A') (A') (A") (A') (A") (A') (A") (A') (A")
                 (A") (A") (A') (A") (A') (A') (A') (A") (A') (A")
                 (A') (A") (A') (A") (A') (A") (A') (A') (A') (A")
                 (A') (A") (A") (A') (A") (A') (A') (A") (A') (A')
                 (A") (A") (A') (A") (A') (A') (A") (A') (A') (A')
                 (A") (A') (A") (A") (A') (A") (A') (A') (A") (A")
                 (A") (A') (A") (A') (A") (A") (A') (A") (A') (A")
                 (A') (A') (A") (A") (A') (A') (A') (A') (A") (A")
                 (A") (A") (A') (A') (A") (A') (A") (A') (A') (A')
                 (A") (A") (A") (A") (A') (A') (A') (A') (A") (A")
                 (A') (A') (A") (A") (A') (A') (A") (A') (A") (A')
                 (A') (A") (A') (A")
 The electronic state of the initial guess is 1-A'.
 Leave Link  401 at Wed Sep 27 16:37:59 2023, MaxMem=  3221225472 cpu:             105.1 elap:               2.6
 (Enter /home/center/opt/aarch64/apps/gaussian16/c01/g16/l502.exe)
 Integral symmetry usage will be decided dynamically.
 Closed shell SCF:
 Using DIIS extrapolation, IDIIS=  1040.
 NGot=  3221225472 LenX=  3219153746 LenY=  3218144726
 Requested convergence on RMS density matrix=1.00D-08 within 128 cycles.
 Requested convergence on MAX density matrix=1.00D-06.
 Requested convergence on             energy=1.00D-06.
 No special actions if energy rises.
 Fock matrices will be formed incrementally for  20 cycles.
 Integral accuracy reduced to 1.0D-05 until final iterations.

 Cycle   1  Pass 0  IDiag  1:
 FoFJK:  IHMeth= 1 ICntrl=       0 DoSepK=F KAlg= 0 I1Cent=           0 FoldK=F
 IRaf= 560000000 NMat=       1 IRICut=       1 DoRegI=T DoRafI=F ISym2E= 1 IDoP0=0 IntGTp=1.
 FoFCou: FMM=F IPFlag=           0 FMFlag=      100000 FMFlg1=        2000
         NFxFlg=           0 DoJE=F BraDBF=F KetDBF=F FulRan=T
         wScrn=  0.000000 ICntrl=         0 IOpCl=  0 I1Cent=           0 NGrid=           0
         NMat0=    1 NMatS0=      1 NMatT0=    0 NMatD0=    1 NMtDS0=    0 NMtDT0=    0
 Petite list used in FoFCou.
 E= -1693.17361637316    
 DIIS: error= 4.50D-02 at cycle   1 NSaved=   1.
 NSaved= 1 IEnMin= 1 EnMin= -1693.17361637316     IErMin= 1 ErrMin= 4.50D-02
 ErrMax= 4.50D-02  0.00D+00 EMaxC= 1.00D-01 BMatC= 8.97D-01 BMatP= 8.97D-01
 IDIUse=3 WtCom= 5.50D-01 WtEn= 4.50D-01
 Coeff-Com:  0.100D+01
 Coeff-En:   0.100D+01
 Coeff:      0.100D+01
 Gap=     0.056 Goal=   None    Shift=    0.000
 GapD=    0.056 DampG=0.500 DampE=0.500 DampFc=0.2500 IDamp=-1.
 Damping current iteration by 2.50D-01
 RMSDP=1.72D-03 MaxDP=8.40D-02              OVMax= 1.55D-01

 Cycle   2  Pass 0  IDiag  1:
 RMSU=  4.15D-04    CP:  9.82D-01
 E= -1693.48103562125     Delta-E=       -0.307419248084 Rises=F Damp=T
 DIIS: error= 2.68D-02 at cycle   2 NSaved=   2.
 NSaved= 2 IEnMin= 2 EnMin= -1693.48103562125     IErMin= 2 ErrMin= 2.68D-02
 ErrMax= 2.68D-02  0.00D+00 EMaxC= 1.00D-01 BMatC= 2.99D-01 BMatP= 8.97D-01
 IDIUse=3 WtCom= 7.32D-01 WtEn= 2.68D-01
 Coeff-Com: -0.121D+01 0.221D+01
 Coeff-En:   0.000D+00 0.100D+01
 Coeff:     -0.889D+00 0.189D+01
 Gap=     0.060 Goal=   None    Shift=    0.000
 RMSDP=7.30D-04 MaxDP=3.39D-02 DE=-3.07D-01 OVMax= 1.04D-01

 Cycle   3  Pass 0  IDiag  1:
 RMSU=  4.71D-04    CP:  9.56D-01  2.29D+00
 E= -1694.04356597553     Delta-E=       -0.562530354287 Rises=F Damp=F
 DIIS: error= 5.63D-03 at cycle   3 NSaved=   3.
 NSaved= 3 IEnMin= 3 EnMin= -1694.04356597553     IErMin= 3 ErrMin= 5.63D-03
 ErrMax= 5.63D-03  0.00D+00 EMaxC= 1.00D-01 BMatC= 1.22D-02 BMatP= 2.99D-01
 IDIUse=3 WtCom= 9.44D-01 WtEn= 5.63D-02
 Coeff-Com: -0.254D+00 0.524D+00 0.730D+00
 Coeff-En:   0.000D+00 0.000D+00 0.100D+01
 Coeff:     -0.239D+00 0.494D+00 0.745D+00
 Gap=     0.066 Goal=   None    Shift=    0.000
 RMSDP=2.50D-04 MaxDP=1.51D-02 DE=-5.63D-01 OVMax= 1.15D-01

 Cycle   4  Pass 0  IDiag  1:
 RMSU=  2.11D-04    CP:  9.57D-01  2.19D+00  7.31D-01
 E= -1694.03827965099     Delta-E=        0.005286324541 Rises=F Damp=F
 DIIS: error= 9.64D-03 at cycle   4 NSaved=   4.
 NSaved= 4 IEnMin= 3 EnMin= -1694.04356597553     IErMin= 3 ErrMin= 5.63D-03
 ErrMax= 9.64D-03  0.00D+00 EMaxC= 1.00D-01 BMatC= 1.51D-02 BMatP= 1.22D-02
 IDIUse=3 WtCom= 9.25D-02 WtEn= 9.08D-01
 Coeff-Com: -0.386D-01 0.111D+00 0.530D+00 0.398D+00
 Coeff-En:   0.000D+00 0.000D+00 0.570D+00 0.430D+00
 Coeff:     -0.356D-02 0.102D-01 0.567D+00 0.427D+00
 Gap=     0.062 Goal=   None    Shift=    0.000
 RMSDP=1.51D-04 MaxDP=1.05D-02 DE= 5.29D-03 OVMax= 9.41D-02

 Cycle   5  Pass 0  IDiag  1:
 RMSU=  7.75D-05    CP:  9.57D-01  2.17D+00  8.08D-01  4.09D-01
 E= -1694.05534531804     Delta-E=       -0.017065667046 Rises=F Damp=F
 DIIS: error= 2.98D-03 at cycle   5 NSaved=   5.
 NSaved= 5 IEnMin= 5 EnMin= -1694.05534531804     IErMin= 5 ErrMin= 2.98D-03
 ErrMax= 2.98D-03  0.00D+00 EMaxC= 1.00D-01 BMatC= 1.10D-03 BMatP= 1.22D-02
 IDIUse=3 WtCom= 9.70D-01 WtEn= 2.98D-02
 Coeff-Com: -0.164D-01 0.352D-01 0.250D+00 0.239D+00 0.493D+00
 Coeff-En:   0.000D+00 0.000D+00 0.000D+00 0.190D-01 0.981D+00
 Coeff:     -0.159D-01 0.342D-01 0.242D+00 0.232D+00 0.507D+00
 Gap=     0.063 Goal=   None    Shift=    0.000
 RMSDP=4.80D-05 MaxDP=3.38D-03 DE=-1.71D-02 OVMax= 3.17D-02

 Cycle   6  Pass 0  IDiag  1:
 RMSU=  2.56D-05    CP:  9.57D-01  2.20D+00  8.15D-01  4.94D-01  5.50D-01
 E= -1694.05628854471     Delta-E=       -0.000943226671 Rises=F Damp=F
 DIIS: error= 1.56D-03 at cycle   6 NSaved=   6.
 NSaved= 6 IEnMin= 6 EnMin= -1694.05628854471     IErMin= 6 ErrMin= 1.56D-03
 ErrMax= 1.56D-03  0.00D+00 EMaxC= 1.00D-01 BMatC= 2.64D-04 BMatP= 1.10D-03
 IDIUse=3 WtCom= 9.84D-01 WtEn= 1.56D-02
 Coeff-Com: -0.594D-02 0.896D-02 0.103D+00 0.112D+00 0.366D+00 0.415D+00
 Coeff-En:   0.000D+00 0.000D+00 0.000D+00 0.000D+00 0.214D+00 0.786D+00
 Coeff:     -0.585D-02 0.882D-02 0.102D+00 0.110D+00 0.364D+00 0.421D+00
 Gap=     0.062 Goal=   None    Shift=    0.000
 RMSDP=2.08D-05 MaxDP=1.63D-03 DE=-9.43D-04 OVMax= 1.33D-02

 Cycle   7  Pass 0  IDiag  1:
 RMSU=  1.04D-05    CP:  9.57D-01  2.20D+00  8.18D-01  4.73D-01  6.18D-01
                    CP:  3.52D-01
 E= -1694.05658379892     Delta-E=       -0.000295254206 Rises=F Damp=F
 DIIS: error= 3.43D-04 at cycle   7 NSaved=   7.
 NSaved= 7 IEnMin= 7 EnMin= -1694.05658379892     IErMin= 7 ErrMin= 3.43D-04
 ErrMax= 3.43D-04  0.00D+00 EMaxC= 1.00D-01 BMatC= 2.35D-05 BMatP= 2.64D-04
 IDIUse=3 WtCom= 9.97D-01 WtEn= 3.43D-03
 Coeff-Com: -0.220D-02 0.262D-02 0.554D-01 0.607D-01 0.218D+00 0.295D+00
 Coeff-Com:  0.371D+00
 Coeff-En:   0.000D+00 0.000D+00 0.000D+00 0.000D+00 0.000D+00 0.453D-01
 Coeff-En:   0.955D+00
 Coeff:     -0.219D-02 0.261D-02 0.552D-01 0.604D-01 0.217D+00 0.294D+00
 Coeff:      0.373D+00
 Gap=     0.062 Goal=   None    Shift=    0.000
 RMSDP=6.32D-06 MaxDP=3.42D-04 DE=-2.95D-04 OVMax= 2.82D-03

 Initial convergence to 1.0D-05 achieved.  Increase integral accuracy.
 Cycle   8  Pass 1  IDiag  1:
 E= -1694.05614765535     Delta-E=        0.000436143568 Rises=F Damp=F
 DIIS: error= 9.16D-04 at cycle   1 NSaved=   1.
 NSaved= 1 IEnMin= 1 EnMin= -1694.05614765535     IErMin= 1 ErrMin= 9.16D-04
 ErrMax= 9.16D-04  0.00D+00 EMaxC= 1.00D-01 BMatC= 4.65D-05 BMatP= 4.65D-05
 IDIUse=3 WtCom= 9.91D-01 WtEn= 9.16D-03
 Coeff-Com:  0.100D+01
 Coeff-En:   0.100D+01
 Coeff:      0.100D+01
 Gap=     0.062 Goal=   None    Shift=    0.000
 RMSDP=6.32D-06 MaxDP=3.42D-04 DE= 4.36D-04 OVMax= 2.74D-03

 Cycle   9  Pass 1  IDiag  1:
 RMSU=  3.43D-04    CP:  9.98D-01
 E= -1694.05618501872     Delta-E=       -0.000037363367 Rises=F Damp=F
 DIIS: error= 2.19D-04 at cycle   2 NSaved=   2.
 NSaved= 2 IEnMin= 2 EnMin= -1694.05618501872     IErMin= 2 ErrMin= 2.19D-04
 ErrMax= 2.19D-04  0.00D+00 EMaxC= 1.00D-01 BMatC= 6.64D-06 BMatP= 4.65D-05
 IDIUse=3 WtCom= 9.98D-01 WtEn= 2.19D-03
 Coeff-Com:  0.153D+00 0.847D+00
 Coeff-En:   0.000D+00 0.100D+01
 Coeff:      0.152D+00 0.848D+00
 Gap=     0.062 Goal=   None    Shift=    0.000
 RMSDP=9.97D-06 MaxDP=6.34D-04 DE=-3.74D-05 OVMax= 5.47D-03

 Cycle  10  Pass 1  IDiag  1:
 RMSU=  9.50D-06    CP:  9.98D-01  1.01D+00
 E= -1694.05614961701     Delta-E=        0.000035401703 Rises=F Damp=F
 DIIS: error= 5.27D-04 at cycle   3 NSaved=   3.
 NSaved= 3 IEnMin= 2 EnMin= -1694.05618501872     IErMin= 2 ErrMin= 2.19D-04
 ErrMax= 5.27D-04  0.00D+00 EMaxC= 1.00D-01 BMatC= 3.45D-05 BMatP= 6.64D-06
 IDIUse=3 WtCom= 3.04D-01 WtEn= 6.96D-01
 Coeff-Com: -0.888D-03 0.697D+00 0.304D+00
 Coeff-En:   0.000D+00 0.768D+00 0.232D+00
 Coeff:     -0.270D-03 0.746D+00 0.254D+00
 Gap=     0.062 Goal=   None    Shift=    0.000
 RMSDP=5.63D-06 MaxDP=3.40D-04 DE= 3.54D-05 OVMax= 3.20D-03

 Cycle  11  Pass 1  IDiag  1:
 RMSU=  1.09D-06    CP:  9.98D-01  1.01D+00  4.26D-01
 E= -1694.05619153037     Delta-E=       -0.000041913357 Rises=F Damp=F
 DIIS: error= 8.91D-05 at cycle   4 NSaved=   4.
 NSaved= 4 IEnMin= 4 EnMin= -1694.05619153037     IErMin= 4 ErrMin= 8.91D-05
 ErrMax= 8.91D-05  0.00D+00 EMaxC= 1.00D-01 BMatC= 1.38D-06 BMatP= 6.64D-06
 IDIUse=1 WtCom= 1.00D+00 WtEn= 0.00D+00
 Coeff-Com: -0.382D-02 0.449D+00 0.114D+00 0.440D+00
 Coeff:     -0.382D-02 0.449D+00 0.114D+00 0.440D+00
 Gap=     0.062 Goal=   None    Shift=    0.000
 RMSDP=1.26D-06 MaxDP=9.44D-05 DE=-4.19D-05 OVMax= 6.79D-04

 Cycle  12  Pass 1  IDiag  1:
 RMSU=  3.83D-07    CP:  9.98D-01  1.01D+00  3.03D-01  7.85D-01
 E= -1694.05619313763     Delta-E=       -0.000001607263 Rises=F Damp=F
 DIIS: error= 5.34D-06 at cycle   5 NSaved=   5.
 NSaved= 5 IEnMin= 5 EnMin= -1694.05619313763     IErMin= 5 ErrMin= 5.34D-06
 ErrMax= 5.34D-06  0.00D+00 EMaxC= 1.00D-01 BMatC= 4.71D-09 BMatP= 1.38D-06
 IDIUse=1 WtCom= 1.00D+00 WtEn= 0.00D+00
 Coeff-Com: -0.223D-02 0.251D+00 0.617D-01 0.260D+00 0.430D+00
 Coeff:     -0.223D-02 0.251D+00 0.617D-01 0.260D+00 0.430D+00
 Gap=     0.062 Goal=   None    Shift=    0.000
 RMSDP=1.03D-07 MaxDP=5.32D-06 DE=-1.61D-06 OVMax= 4.51D-05

 Cycle  13  Pass 1  IDiag  1:
 RMSU=  9.42D-08    CP:  9.98D-01  1.01D+00  3.04D-01  7.93D-01  8.96D-01
 E= -1694.05619314265     Delta-E=       -0.000000005014 Rises=F Damp=F
 DIIS: error= 2.10D-06 at cycle   6 NSaved=   6.
 NSaved= 6 IEnMin= 6 EnMin= -1694.05619314265     IErMin= 6 ErrMin= 2.10D-06
 ErrMax= 2.10D-06  0.00D+00 EMaxC= 1.00D-01 BMatC= 7.49D-10 BMatP= 4.71D-09
 IDIUse=1 WtCom= 1.00D+00 WtEn= 0.00D+00
 Coeff-Com: -0.916D-03 0.101D+00 0.242D-01 0.108D+00 0.288D+00 0.480D+00
 Coeff:     -0.916D-03 0.101D+00 0.242D-01 0.108D+00 0.288D+00 0.480D+00
 Gap=     0.062 Goal=   None    Shift=    0.000
 RMSDP=3.69D-08 MaxDP=2.37D-06 DE=-5.01D-09 OVMax= 2.13D-05

 Cycle  14  Pass 1  IDiag  1:
 RMSU=  3.02D-08    CP:  9.98D-01  1.01D+00  3.04D-01  7.90D-01  9.21D-01
                    CP:  8.19D-01
 E= -1694.05619314346     Delta-E=       -0.000000000810 Rises=F Damp=F
 DIIS: error= 6.78D-07 at cycle   7 NSaved=   7.
 NSaved= 7 IEnMin= 7 EnMin= -1694.05619314346     IErMin= 7 ErrMin= 6.78D-07
 ErrMax= 6.78D-07  0.00D+00 EMaxC= 1.00D-01 BMatC= 6.35D-11 BMatP= 7.49D-10
 IDIUse=1 WtCom= 1.00D+00 WtEn= 0.00D+00
 Coeff-Com: -0.364D-03 0.393D-01 0.917D-02 0.435D-01 0.133D+00 0.292D+00
 Coeff-Com:  0.483D+00
 Coeff:     -0.364D-03 0.393D-01 0.917D-02 0.435D-01 0.133D+00 0.292D+00
 Coeff:      0.483D+00
 Gap=     0.062 Goal=   None    Shift=    0.000
 RMSDP=1.35D-08 MaxDP=5.82D-07 DE=-8.10D-10 OVMax= 5.87D-06

 Cycle  15  Pass 1  IDiag  1:
 RMSU=  8.57D-09    CP:  9.98D-01  1.01D+00  3.04D-01  7.93D-01  9.22D-01
                    CP:  8.30D-01  6.72D-01
 E= -1694.05619314351     Delta-E=       -0.000000000056 Rises=F Damp=F
 DIIS: error= 3.48D-07 at cycle   8 NSaved=   8.
 NSaved= 8 IEnMin= 8 EnMin= -1694.05619314351     IErMin= 8 ErrMin= 3.48D-07
 ErrMax= 3.48D-07  0.00D+00 EMaxC= 1.00D-01 BMatC= 1.75D-11 BMatP= 6.35D-11
 IDIUse=1 WtCom= 1.00D+00 WtEn= 0.00D+00
 Coeff-Com: -0.646D-05 0.244D-03-0.319D-03 0.183D-02 0.189D-01 0.931D-01
 Coeff-Com:  0.352D+00 0.534D+00
 Coeff:     -0.646D-05 0.244D-03-0.319D-03 0.183D-02 0.189D-01 0.931D-01
 Coeff:      0.352D+00 0.534D+00
 Gap=     0.062 Goal=   None    Shift=    0.000
 RMSDP=5.96D-09 MaxDP=2.92D-07 DE=-5.64D-11 OVMax= 3.18D-06

 SCF Done:  E(RB3LYP) =  -1694.05619314     A.U. after   15 cycles
            NFock= 15  Conv=0.60D-08     -V/T= 2.0043
 KE= 1.686752641126D+03 PE=-1.326126717317D+04 EE= 5.215123606089D+03
 Leave Link  502 at Wed Sep 27 16:39:47 2023, MaxMem=  3221225472 cpu:            3859.7 elap:             105.9
 (Enter /home/center/opt/aarch64/apps/gaussian16/c01/g16/l601.exe)
 Copying SCF densities to generalized density rwf, IOpCl= 0 IROHF=0.

 **********************************************************************

            Population analysis using the SCF Density.

 **********************************************************************

 Orbital symmetries:
       Occupied  (A") (A') (A') (A") (A") (A') (A") (A') (A') (A")
                 (A') (A') (A") (A') (A") (A') (A") (A') (A") (A')
                 (A") (A') (A") (A') (A") (A') (A') (A") (A') (A")
                 (A") (A') (A") (A') (A') (A") (A') (A") (A') (A')
                 (A") (A') (A") (A') (A') (A") (A') (A") (A') (A')
                 (A") (A") (A') (A') (A") (A') (A') (A") (A') (A")
                 (A') (A") (A") (A") (A') (A') (A') (A') (A") (A")
                 (A') (A") (A") (A") (A') (A') (A") (A') (A') (A')
                 (A') (A") (A") (A') (A") (A") (A') (A") (A') (A')
                 (A") (A') (A") (A") (A') (A') (A") (A') (A") (A')
                 (A") (A') (A') (A') (A') (A') (A") (A") (A") (A')
                 (A') (A') (A") (A") (A") (A") (A") (A') (A") (A')
                 (A') (A') (A') (A") (A") (A') (A') (A") (A') (A")
                 (A") (A") (A') (A') (A") (A') (A") (A') (A') (A')
                 (A") (A") (A") (A") (A') (A')
       Virtual   (A') (A') (A") (A") (A") (A") (A') (A') (A') (A")
                 (A') (A') (A") (A') (A") (A') (A') (A') (A") (A")
                 (A') (A') (A") (A") (A') (A") (A') (A") (A") (A')
                 (A") (A') (A") (A') (A') (A') (A") (A") (A") (A')
                 (A') (A') (A') (A") (A") (A') (A") (A') (A") (A")
                 (A') (A') (A') (A') (A') (A") (A') (A') (A") (A')
                 (A") (A") (A") (A") (A') (A') (A") (A') (A") (A")
                 (A') (A') (A") (A') (A") (A') (A") (A') (A") (A")
                 (A') (A') (A') (A') (A") (A') (A') (A") (A') (A")
                 (A") (A') (A') (A") (A') (A") (A') (A") (A') (A")
                 (A') (A") (A') (A") (A') (A") (A') (A") (A") (A')
                 (A") (A') (A") (A') (A') (A") (A") (A') (A') (A")
                 (A') (A") (A') (A') (A') (A') (A') (A") (A") (A")
                 (A') (A') (A') (A") (A') (A") (A') (A") (A') (A')
                 (A") (A') (A") (A') (A") (A") (A") (A") (A') (A')
                 (A") (A") (A') (A") (A') (A") (A') (A') (A') (A')
                 (A") (A") (A") (A') (A') (A') (A") (A") (A") (A')
                 (A') (A') (A') (A") (A") (A') (A") (A") (A') (A")
                 (A') (A') (A") (A') (A") (A") (A') (A") (A') (A")
                 (A') (A') (A") (A') (A') (A") (A") (A") (A') (A')
                 (A") (A') (A") (A') (A') (A") (A') (A') (A") (A')
                 (A') (A") (A") (A") (A') (A') (A") (A') (A") (A')
                 (A") (A") (A") (A') (A") (A') (A') (A') (A") (A')
                 (A") (A') (A') (A") (A') (A") (A') (A") (A') (A")
                 (A') (A") (A') (A") (A') (A") (A") (A') (A") (A')
                 (A") (A') (A") (A") (A') (A") (A') (A') (A") (A')
                 (A') (A') (A") (A") (A') (A') (A') (A") (A") (A")
                 (A') (A") (A") (A') (A") (A') (A") (A') (A") (A')
                 (A") (A') (A') (A") (A') (A") (A') (A') (A") (A")
                 (A') (A") (A') (A") (A') (A") (A") (A') (A') (A')
                 (A") (A") (A") (A") (A') (A') (A') (A") (A') (A')
                 (A") (A") (A') (A") (A') (A") (A") (A') (A') (A')
                 (A") (A') (A') (A") (A") (A') (A') (A") (A") (A")
                 (A') (A") (A') (A") (A') (A") (A') (A") (A') (A')
                 (A") (A') (A') (A') (A") (A") (A') (A') (A") (A')
                 (A") (A") (A') (A") (A') (A') (A') (A') (A') (A")
                 (A') (A") (A") (A") (A') (A') (A") (A") (A") (A")
                 (A') (A") (A') (A") (A') (A") (A') (A") (A') (A")
                 (A') (A') (A") (A') (A") (A') (A') (A') (A') (A")
                 (A") (A') (A') (A") (A') (A") (A") (A') (A') (A")
                 (A') (A") (A") (A') (A") (A') (A') (A") (A') (A")
                 (A') (A") (A') (A") (A') (A') (A") (A') (A") (A')
                 (A') (A') (A") (A') (A") (A') (A') (A") (A") (A")
                 (A') (A") (A") (A') (A") (A") (A') (A') (A") (A')
                 (A') (A") (A") (A") (A') (A") (A') (A') (A") (A')
                 (A") (A') (A") (A') (A") (A") (A') (A") (A') (A')
                 (A") (A") (A') (A') (A") (A') (A") (A') (A') (A")
                 (A') (A") (A") (A") (A') (A') (A") (A') (A') (A")
                 (A") (A') (A") (A') (A') (A") (A') (A") (A") (A")
                 (A') (A") (A") (A') (A") (A") (A") (A') (A') (A")
                 (A') (A") (A') (A') (A') (A") (A') (A') (A") (A')
                 (A") (A') (A") (A') (A") (A') (A') (A") (A") (A')
                 (A") (A') (A") (A") (A') (A') (A') (A") (A") (A")
                 (A') (A") (A') (A") (A') (A") (A") (A') (A') (A')
                 (A") (A') (A") (A') (A") (A') (A") (A") (A') (A")
                 (A') (A") (A") (A') (A') (A") (A') (A') (A") (A")
                 (A') (A') (A') (A") (A") (A') (A") (A') (A') (A")
                 (A') (A") (A') (A') (A") (A') (A') (A") (A') (A")
                 (A") (A') (A") (A') (A") (A') (A") (A") (A') (A")
                 (A') (A") (A') (A") (A") (A') (A') (A') (A') (A")
                 (A') (A') (A") (A') (A") (A') (A") (A') (A") (A")
                 (A') (A') (A') (A') (A") (A') (A") (A") (A') (A')
                 (A") (A") (A') (A") (A") (A') (A') (A") (A") (A')
                 (A') (A") (A') (A') (A") (A') (A') (A") (A") (A")
                 (A') (A") (A') (A") (A') (A') (A") (A') (A") (A')
                 (A") (A') (A') (A") (A') (A") (A') (A') (A') (A")
                 (A") (A") (A') (A") (A') (A") (A') (A') (A") (A')
                 (A') (A") (A") (A') (A") (A') (A") (A") (A') (A')
                 (A') (A') (A") (A") (A') (A") (A") (A') (A") (A")
                 (A') (A') (A") (A') (A') (A') (A") (A") (A") (A')
                 (A') (A') (A") (A") (A') (A") (A') (A") (A") (A')
                 (A") (A') (A") (A") (A') (A') (A') (A") (A') (A")
                 (A') (A') (A") (A') (A") (A') (A") (A') (A') (A")
                 (A') (A") (A') (A") (A") (A') (A') (A") (A') (A")
                 (A') (A") (A') (A") (A') (A') (A") (A') (A') (A')
                 (A") (A') (A") (A") (A') (A") (A') (A') (A") (A")
                 (A") (A') (A") (A") (A') (A') (A") (A") (A') (A")
                 (A') (A') (A") (A") (A') (A') (A') (A') (A") (A")
                 (A") (A") (A') (A') (A") (A') (A') (A") (A') (A')
                 (A") (A") (A") (A") (A') (A') (A") (A') (A') (A")
                 (A') (A") (A') (A') (A") (A") (A') (A') (A") (A')
                 (A') (A") (A') (A")
 The electronic state is 1-A'.
 Alpha  occ. eigenvalues --  -10.19743 -10.19743 -10.19686 -10.19685 -10.19650
 Alpha  occ. eigenvalues --  -10.19650 -10.19559 -10.19559 -10.18806 -10.18731
 Alpha  occ. eigenvalues --  -10.18731 -10.18699 -10.18664 -10.18664 -10.18636
 Alpha  occ. eigenvalues --  -10.18635 -10.18548 -10.18548 -10.18541 -10.18541
 Alpha  occ. eigenvalues --  -10.18435 -10.18435 -10.17895 -10.17895 -10.17856
 Alpha  occ. eigenvalues --  -10.17856 -10.17787 -10.17786 -10.17714 -10.17714
 Alpha  occ. eigenvalues --  -10.17013 -10.17013 -10.16936 -10.16936 -10.16906
 Alpha  occ. eigenvalues --  -10.16905 -10.16903 -10.16831 -10.16831 -10.16674
 Alpha  occ. eigenvalues --  -10.16641 -10.16641 -10.16584 -10.16584  -0.90167
 Alpha  occ. eigenvalues --   -0.88665  -0.88293  -0.86849  -0.86337  -0.84548
 Alpha  occ. eigenvalues --   -0.83195  -0.81422  -0.80642  -0.79295  -0.79111
 Alpha  occ. eigenvalues --   -0.78748  -0.77533  -0.77272  -0.76776  -0.75021
 Alpha  occ. eigenvalues --   -0.74963  -0.73680  -0.73259  -0.71880  -0.69985
 Alpha  occ. eigenvalues --   -0.68208  -0.68071  -0.66341  -0.63497  -0.63118
 Alpha  occ. eigenvalues --   -0.61876  -0.61716  -0.61385  -0.60715  -0.60049
 Alpha  occ. eigenvalues --   -0.60043  -0.58919  -0.58439  -0.58276  -0.56695
 Alpha  occ. eigenvalues --   -0.53452  -0.53307  -0.53033  -0.51728  -0.51561
 Alpha  occ. eigenvalues --   -0.51311  -0.50377  -0.49246  -0.48645  -0.47879
 Alpha  occ. eigenvalues --   -0.47555  -0.46838  -0.46293  -0.46223  -0.46204
 Alpha  occ. eigenvalues --   -0.45473  -0.44823  -0.44663  -0.44475  -0.43886
 Alpha  occ. eigenvalues --   -0.43276  -0.42964  -0.42540  -0.42350  -0.42288
 Alpha  occ. eigenvalues --   -0.41862  -0.41653  -0.41461  -0.41129  -0.40794
 Alpha  occ. eigenvalues --   -0.40576  -0.40372  -0.40262  -0.39652  -0.39404
 Alpha  occ. eigenvalues --   -0.38905  -0.38597  -0.37526  -0.37292  -0.37050
 Alpha  occ. eigenvalues --   -0.36257  -0.35768  -0.35396  -0.34849  -0.34509
 Alpha  occ. eigenvalues --   -0.34386  -0.33781  -0.33518  -0.33167  -0.33077
 Alpha  occ. eigenvalues --   -0.32963  -0.31976  -0.30980  -0.30584  -0.30035
 Alpha  occ. eigenvalues --   -0.29146  -0.28665  -0.27465  -0.27281  -0.25635
 Alpha  occ. eigenvalues --   -0.25194  -0.23403  -0.23339  -0.21593  -0.18686
 Alpha  occ. eigenvalues --   -0.16840
 Alpha virt. eigenvalues --   -0.10611  -0.08751  -0.05317  -0.03629  -0.03490
 Alpha virt. eigenvalues --   -0.01792  -0.01053   0.00830   0.01210   0.01301
 Alpha virt. eigenvalues --    0.01886   0.03004   0.03330   0.03797   0.03973
 Alpha virt. eigenvalues --    0.04015   0.04796   0.05604   0.05688   0.06059
 Alpha virt. eigenvalues --    0.06171   0.06806   0.07240   0.07478   0.07759
 Alpha virt. eigenvalues --    0.08255   0.08778   0.09244   0.09483   0.09822
 Alpha virt. eigenvalues --    0.10674   0.10953   0.11379   0.11929   0.12484
 Alpha virt. eigenvalues --    0.13114   0.13173   0.13246   0.13595   0.14123
 Alpha virt. eigenvalues --    0.14971   0.15388   0.16275   0.16941   0.17361
 Alpha virt. eigenvalues --    0.17688   0.18115   0.18348   0.19184   0.19940
 Alpha virt. eigenvalues --    0.20472   0.20693   0.22176   0.22338   0.23730
 Alpha virt. eigenvalues --    0.23904   0.24036   0.24442   0.24913   0.25480
 Alpha virt. eigenvalues --    0.25838   0.26312   0.26762   0.26966   0.27449
 Alpha virt. eigenvalues --    0.27528   0.27980   0.28568   0.28601   0.28892
 Alpha virt. eigenvalues --    0.29024   0.29415   0.29670   0.30043   0.30198
 Alpha virt. eigenvalues --    0.30248   0.30532   0.31259   0.31558   0.32140
 Alpha virt. eigenvalues --    0.32486   0.33952   0.34209   0.34399   0.34660
 Alpha virt. eigenvalues --    0.34961   0.35495   0.35639   0.35993   0.36192
 Alpha virt. eigenvalues --    0.36447   0.37059   0.37341   0.37595   0.37772
 Alpha virt. eigenvalues --    0.38049   0.38123   0.38288   0.38784   0.38817
 Alpha virt. eigenvalues --    0.39210   0.39487   0.39628   0.39766   0.40267
 Alpha virt. eigenvalues --    0.40268   0.40422   0.40629   0.41353   0.41470
 Alpha virt. eigenvalues --    0.41477   0.42092   0.42140   0.42272   0.42404
 Alpha virt. eigenvalues --    0.42737   0.42934   0.43113   0.43217   0.43229
 Alpha virt. eigenvalues --    0.43291   0.44263   0.44612   0.44968   0.45045
 Alpha virt. eigenvalues --    0.45160   0.45593   0.45648   0.45714   0.45895
 Alpha virt. eigenvalues --    0.46022   0.46262   0.46549   0.46587   0.46803
 Alpha virt. eigenvalues --    0.46808   0.46951   0.47609   0.47980   0.48532
 Alpha virt. eigenvalues --    0.48564   0.48963   0.49133   0.49138   0.49389
 Alpha virt. eigenvalues --    0.50196   0.50385   0.50597   0.50624   0.51136
 Alpha virt. eigenvalues --    0.51228   0.51400   0.51895   0.52565   0.52860
 Alpha virt. eigenvalues --    0.53438   0.53791   0.53980   0.54404   0.55334
 Alpha virt. eigenvalues --    0.55549   0.56641   0.57263   0.57275   0.57443
 Alpha virt. eigenvalues --    0.57786   0.57995   0.58417   0.58631   0.58790
 Alpha virt. eigenvalues --    0.59232   0.59419   0.59964   0.60436   0.60479
 Alpha virt. eigenvalues --    0.60897   0.61284   0.61473   0.61922   0.61963
 Alpha virt. eigenvalues --    0.62061   0.62192   0.62651   0.62858   0.63037
 Alpha virt. eigenvalues --    0.63312   0.63669   0.63772   0.63849   0.64030
 Alpha virt. eigenvalues --    0.64153   0.64327   0.64662   0.65240   0.66347
 Alpha virt. eigenvalues --    0.66599   0.66972   0.67567   0.67659   0.68005
 Alpha virt. eigenvalues --    0.68578   0.69247   0.69608   0.70368   0.70592
 Alpha virt. eigenvalues --    0.71299   0.71748   0.72185   0.72270   0.72779
 Alpha virt. eigenvalues --    0.73254   0.73290   0.74212   0.74562   0.74799
 Alpha virt. eigenvalues --    0.75662   0.75977   0.76185   0.76266   0.77281
 Alpha virt. eigenvalues --    0.77471   0.77891   0.78272   0.78293   0.78760
 Alpha virt. eigenvalues --    0.79338   0.79598   0.79935   0.79959   0.80489
 Alpha virt. eigenvalues --    0.80726   0.81044   0.81975   0.82184   0.83143
 Alpha virt. eigenvalues --    0.83418   0.83843   0.83916   0.84067   0.84129
 Alpha virt. eigenvalues --    0.84823   0.85311   0.85998   0.86037   0.87422
 Alpha virt. eigenvalues --    0.87649   0.88594   0.88635   0.89882   0.90248
 Alpha virt. eigenvalues --    0.90434   0.90654   0.91697   0.91991   0.92753
 Alpha virt. eigenvalues --    0.92961   0.93144   0.93396   0.94146   0.94924
 Alpha virt. eigenvalues --    0.95072   0.95366   0.95460   0.95712   0.96494
 Alpha virt. eigenvalues --    0.96986   0.97459   0.97778   0.97987   0.98338
 Alpha virt. eigenvalues --    0.98767   0.99588   1.00590   1.00663   1.01076
 Alpha virt. eigenvalues --    1.01517   1.01836   1.02053   1.02330   1.02434
 Alpha virt. eigenvalues --    1.03075   1.03483   1.03947   1.04741   1.04909
 Alpha virt. eigenvalues --    1.04996   1.05742   1.05863   1.05922   1.06357
 Alpha virt. eigenvalues --    1.06402   1.06592   1.06940   1.07002   1.07334
 Alpha virt. eigenvalues --    1.07563   1.08602   1.08625   1.08721   1.09095
 Alpha virt. eigenvalues --    1.09125   1.09834   1.10804   1.11132   1.11146
 Alpha virt. eigenvalues --    1.11558   1.11827   1.12130   1.12905   1.13538
 Alpha virt. eigenvalues --    1.13767   1.13979   1.14255   1.14709   1.15055
 Alpha virt. eigenvalues --    1.15518   1.16559   1.16739   1.16914   1.17319
 Alpha virt. eigenvalues --    1.18131   1.18730   1.19416   1.19426   1.21343
 Alpha virt. eigenvalues --    1.21471   1.22919   1.23329   1.24855   1.25315
 Alpha virt. eigenvalues --    1.26176   1.26609   1.27959   1.28613   1.30530
 Alpha virt. eigenvalues --    1.31722   1.31849   1.32448   1.33007   1.34162
 Alpha virt. eigenvalues --    1.35516   1.35660   1.36417   1.37000   1.38115
 Alpha virt. eigenvalues --    1.39258   1.39663   1.40370   1.40776   1.41397
 Alpha virt. eigenvalues --    1.41540   1.41930   1.42180   1.42397   1.42669
 Alpha virt. eigenvalues --    1.42806   1.44071   1.44571   1.44980   1.45209
 Alpha virt. eigenvalues --    1.45470   1.46662   1.47189   1.47318   1.47356
 Alpha virt. eigenvalues --    1.47762   1.48222   1.48634   1.48911   1.49594
 Alpha virt. eigenvalues --    1.49672   1.50279   1.50279   1.50629   1.50953
 Alpha virt. eigenvalues --    1.51140   1.51546   1.52049   1.52560   1.53223
 Alpha virt. eigenvalues --    1.53364   1.53975   1.54663   1.54863   1.55285
 Alpha virt. eigenvalues --    1.55309   1.55565   1.55820   1.56203   1.56264
 Alpha virt. eigenvalues --    1.57506   1.57526   1.58146   1.58808   1.59062
 Alpha virt. eigenvalues --    1.59595   1.60328   1.61126   1.61596   1.62017
 Alpha virt. eigenvalues --    1.62054   1.62466   1.62756   1.63402   1.64755
 Alpha virt. eigenvalues --    1.64767   1.65288   1.66802   1.67366   1.67905
 Alpha virt. eigenvalues --    1.69067   1.69120   1.69525   1.70473   1.71156
 Alpha virt. eigenvalues --    1.71351   1.71387   1.71597   1.71908   1.72117
 Alpha virt. eigenvalues --    1.72583   1.73384   1.73798   1.74104   1.74186
 Alpha virt. eigenvalues --    1.74262   1.75138   1.75442   1.76020   1.76735
 Alpha virt. eigenvalues --    1.77151   1.78780   1.79426   1.79512   1.80142
 Alpha virt. eigenvalues --    1.80223   1.80938   1.81080   1.81368   1.81905
 Alpha virt. eigenvalues --    1.82291   1.82386   1.82703   1.83283   1.83395
 Alpha virt. eigenvalues --    1.84097   1.84863   1.85158   1.85387   1.85557
 Alpha virt. eigenvalues --    1.85702   1.86649   1.86927   1.87486   1.88156
 Alpha virt. eigenvalues --    1.88536   1.88622   1.88707   1.88761   1.89113
 Alpha virt. eigenvalues --    1.89390   1.90047   1.90070   1.90824   1.91116
 Alpha virt. eigenvalues --    1.91238   1.91656   1.91967   1.92181   1.92912
 Alpha virt. eigenvalues --    1.93219   1.93465   1.94170   1.94482   1.94588
 Alpha virt. eigenvalues --    1.94930   1.95091   1.95357   1.95974   1.96077
 Alpha virt. eigenvalues --    1.97216   1.97241   1.97278   1.98285   1.99012
 Alpha virt. eigenvalues --    1.99822   2.00420   2.00545   2.00971   2.01422
 Alpha virt. eigenvalues --    2.01499   2.02063   2.02561   2.03881   2.04781
 Alpha virt. eigenvalues --    2.06118   2.07598   2.07748   2.09032   2.09268
 Alpha virt. eigenvalues --    2.09289   2.10020   2.11168   2.11416   2.11946
 Alpha virt. eigenvalues --    2.12505   2.13009   2.13582   2.13710   2.15213
 Alpha virt. eigenvalues --    2.15726   2.16479   2.16514   2.17204   2.18269
 Alpha virt. eigenvalues --    2.18953   2.19811   2.20266   2.21533   2.22313
 Alpha virt. eigenvalues --    2.22474   2.23038   2.23431   2.23758   2.24047
 Alpha virt. eigenvalues --    2.24244   2.25729   2.26313   2.26546   2.26988
 Alpha virt. eigenvalues --    2.27053   2.27743   2.28340   2.28385   2.28978
 Alpha virt. eigenvalues --    2.29136   2.30638   2.31200   2.32194   2.32457
 Alpha virt. eigenvalues --    2.34293   2.35148   2.36220   2.36866   2.38656
 Alpha virt. eigenvalues --    2.38964   2.40255   2.40481   2.41688   2.41850
 Alpha virt. eigenvalues --    2.42680   2.43360   2.45067   2.45275   2.45402
 Alpha virt. eigenvalues --    2.46838   2.46860   2.47173   2.47465   2.49496
 Alpha virt. eigenvalues --    2.50597   2.51175   2.52448   2.53464   2.53970
 Alpha virt. eigenvalues --    2.54798   2.55200   2.55832   2.56627   2.56763
 Alpha virt. eigenvalues --    2.57964   2.58227   2.58634   2.59152   2.59434
 Alpha virt. eigenvalues --    2.59692   2.60666   2.60916   2.60955   2.61319
 Alpha virt. eigenvalues --    2.61552   2.62377   2.62617   2.63186   2.63248
 Alpha virt. eigenvalues --    2.64186   2.64258   2.64576   2.64727   2.64875
 Alpha virt. eigenvalues --    2.66237   2.66444   2.66595   2.66978   2.67482
 Alpha virt. eigenvalues --    2.67732   2.67891   2.68287   2.68547   2.68737
 Alpha virt. eigenvalues --    2.68840   2.69123   2.69348   2.70239   2.70368
 Alpha virt. eigenvalues --    2.70769   2.71079   2.71254   2.71490   2.71946
 Alpha virt. eigenvalues --    2.72337   2.72552   2.73587   2.73795   2.74416
 Alpha virt. eigenvalues --    2.74839   2.76155   2.76313   2.76743   2.77043
 Alpha virt. eigenvalues --    2.77188   2.77996   2.78125   2.78196   2.79509
 Alpha virt. eigenvalues --    2.79653   2.79835   2.80209   2.80985   2.82014
 Alpha virt. eigenvalues --    2.82066   2.82243   2.82819   2.83469   2.83978
 Alpha virt. eigenvalues --    2.84178   2.85025   2.85971   2.86290   2.86944
 Alpha virt. eigenvalues --    2.87567   2.87775   2.88489   2.90138   2.90164
 Alpha virt. eigenvalues --    2.90521   2.91397   2.91657   2.91790   2.92563
 Alpha virt. eigenvalues --    2.93015   2.93105   2.94670   2.95044   2.95916
 Alpha virt. eigenvalues --    2.95986   2.96218   2.96778   2.98117   2.98362
 Alpha virt. eigenvalues --    2.98614   3.00651   3.00794   3.03812   3.04016
 Alpha virt. eigenvalues --    3.05871   3.06765   3.08211   3.08720   3.08968
 Alpha virt. eigenvalues --    3.10336   3.10749   3.15729   3.16272   3.16499
 Alpha virt. eigenvalues --    3.17383   3.18198   3.18394   3.19826   3.20254
 Alpha virt. eigenvalues --    3.21502   3.22388   3.23353   3.25634   3.29652
 Alpha virt. eigenvalues --    3.29947   3.31326   3.31430   3.31945   3.34203
 Alpha virt. eigenvalues --    3.35551   3.35947   3.36583   3.37071   3.37709
 Alpha virt. eigenvalues --    3.37908   3.37991   3.38952   3.39693   3.40375
 Alpha virt. eigenvalues --    3.41667   3.42099   3.42190   3.43922   3.45273
 Alpha virt. eigenvalues --    3.45630   3.46453   3.47441   3.49210   3.49352
 Alpha virt. eigenvalues --    3.50923   3.51166   3.51737   3.52368   3.53288
 Alpha virt. eigenvalues --    3.56125   3.57512   3.58888   3.59151   3.60799
 Alpha virt. eigenvalues --    3.62536   3.62888   3.63455   3.64535   3.64715
 Alpha virt. eigenvalues --    3.65611   3.66866   3.67514   3.68024   3.68362
 Alpha virt. eigenvalues --    3.69378   3.69915   3.70417   3.70664   4.00142
 Alpha virt. eigenvalues --    4.00187   4.01200   4.01443   4.02767   4.02768
 Alpha virt. eigenvalues --    4.03251   4.03511   4.15732   4.16202   4.17621
 Alpha virt. eigenvalues --    4.19392   4.20224   4.20386   4.21397   4.21928
 Alpha virt. eigenvalues --    4.22210   4.24385   4.24637   4.25947   4.29900
 Alpha virt. eigenvalues --    4.30555   4.38059   4.41498   4.61794   4.64833
 Alpha virt. eigenvalues --    4.78461   4.79104   4.79832   4.81005   4.81339
 Alpha virt. eigenvalues --    4.81965   4.82345   4.82812   4.85061   4.85384
 Alpha virt. eigenvalues --   23.39985  23.43450  23.55159  23.59136  23.69652
 Alpha virt. eigenvalues --   23.73230  23.78115  23.79419  23.80796  23.81907
 Alpha virt. eigenvalues --   23.82822  23.84532  23.86532  23.87884  23.89388
 Alpha virt. eigenvalues --   23.89597  23.90841  23.91149  23.92540  23.95020
 Alpha virt. eigenvalues --   23.96882  23.98356  23.98806  23.99680  24.08810
 Alpha virt. eigenvalues --   24.09339  24.10066  24.10347  24.11105  24.11726
 Alpha virt. eigenvalues --   24.12199  24.13386  24.13679  24.13861  24.15132
 Alpha virt. eigenvalues --   24.15182  24.15183  24.15870  24.16796  24.16831
 Alpha virt. eigenvalues --   24.19886  24.19934  24.21654  24.21717
          Condensed to atoms (all electrons):
 Mulliken charges:
               1
     1  C   -0.028846
     2  C   -0.046620
     3  C   -0.119547
     4  C   -0.047518
     5  C   -0.079368
     6  C   -0.083661
     7  C   -0.099433
     8  C   -0.014332
     9  C    0.002303
    10  C   -0.046849
    11  H    0.088907
    12  H    0.079129
    13  H    0.078481
    14  H    0.085439
    15  H    0.097847
    16  H    0.099322
    17  C   -0.103347
    18  C   -0.014332
    19  C   -0.002687
    20  C   -0.046849
    21  H    0.077882
    22  H    0.077190
    23  C   -0.099433
    24  C   -0.028846
    25  C    0.002303
    26  C   -0.046620
    27  H    0.079129
    28  H    0.078481
    29  C   -0.119547
    30  C   -0.079368
    31  C   -0.047518
    32  C   -0.083661
    33  H    0.088907
    34  H    0.099322
    35  H    0.097847
    36  H    0.085439
    37  C   -0.013366
    38  C   -0.131715
    39  C   -0.064190
    40  C   -0.044660
    41  C   -0.085381
    42  C   -0.126306
    43  C   -0.033141
    44  C    0.000711
    45  C   -0.005953
    46  C   -0.140554
    47  H    0.078047
    48  H    0.069534
    49  H    0.129745
    50  H    0.130179
    51  H    0.083233
    52  H    0.090431
    53  C   -0.036915
    54  C    0.000711
    55  C   -0.011753
    56  C   -0.140554
    57  H    0.068158
    58  H    0.127732
    59  C   -0.033141
    60  C   -0.013366
    61  C   -0.005953
    62  C   -0.131715
    63  H    0.069534
    64  H    0.129745
    65  C   -0.064190
    66  C   -0.085381
    67  C   -0.044660
    68  C   -0.126306
    69  H    0.078047
    70  H    0.090431
    71  H    0.083233
    72  H    0.130179
 Sum of Mulliken charges =   0.00000
 Mulliken charges with hydrogens summed into heavy atoms:
               1
     1  C   -0.028846
     2  C   -0.046620
     3  C   -0.030640
     4  C    0.037922
     5  C    0.019955
     6  C    0.014186
     7  C   -0.020305
     8  C   -0.014332
     9  C    0.080784
    10  C   -0.046849
    17  C   -0.025465
    18  C   -0.014332
    19  C    0.074503
    20  C   -0.046849
    23  C   -0.020305
    24  C   -0.028846
    25  C    0.080784
    26  C   -0.046620
    29  C   -0.030640
    30  C    0.019955
    31  C    0.037922
    32  C    0.014186
    37  C   -0.013366
    38  C   -0.131715
    39  C    0.013857
    40  C    0.085519
    41  C    0.005050
    42  C   -0.043074
    43  C    0.036393
    44  C    0.000711
    45  C    0.123792
    46  C   -0.140554
    53  C    0.031244
    54  C    0.000711
    55  C    0.115979
    56  C   -0.140554
    59  C    0.036393
    60  C   -0.013366
    61  C    0.123792
    62  C   -0.131715
    65  C    0.013857
    66  C    0.005050
    67  C    0.085519
    68  C   -0.043074
         Mulliken charges condensed to fragments:
      1     -0.020450
      2      0.020450
 Electronic spatial extent (au):  <R**2>=          25506.6157
 Charge=              0.0000 electrons
 Dipole moment (field-independent basis, Debye):
    X=             -0.9622    Y=             -1.7571    Z=              0.0000  Tot=              2.0033
 Quadrupole moment (field-independent basis, Debye-Ang):
   XX=           -245.5528   YY=           -249.7798   ZZ=           -219.6881
   XY=              0.3943   XZ=              0.0000   YZ=              0.0000
 Traceless Quadrupole moment (field-independent basis, Debye-Ang):
   XX=             -7.2126   YY=            -11.4396   ZZ=             18.6521
   XY=              0.3943   XZ=              0.0000   YZ=              0.0000
 Octapole moment (field-independent basis, Debye-Ang**2):
  XXX=            -60.4065  YYY=            164.2236  ZZZ=              0.0000  XYY=             11.1300
  XXY=            -70.1332  XXZ=              0.0000  XZZ=            -17.0077  YZZ=            -39.7253
  YYZ=              0.0000  XYZ=              0.0000
 Hexadecapole moment (field-independent basis, Debye-Ang**3):
 XXXX=          -1993.9361 YYYY=         -10422.3120 ZZZZ=         -21038.1944 XXXY=          -1288.8110
 XXXZ=              0.0000 YYYX=          -1302.1000 YYYZ=              0.0000 ZZZX=              0.0000
 ZZZY=              0.0000 XXYY=          -2143.2558 XXZZ=          -4266.9363 YYZZ=          -5553.8061
 XXYZ=              0.0000 YYXZ=              0.0000 ZZXY=           -381.0135
 N-N= 4.665334732810D+03 E-N=-1.326126712711D+04  KE= 1.686752641126D+03
 Symmetry A'   KE= 9.134648335452D+02
 Symmetry A"   KE= 7.732878075806D+02
 No NMR shielding tensors so no spin-rotation constants.
 Leave Link  601 at Wed Sep 27 16:39:50 2023, MaxMem=  3221225472 cpu:              50.6 elap:               1.3
 (Enter /home/center/opt/aarch64/apps/gaussian16/c01/g16/l122.exe)
 CPIOFr:  IOpCl= 0 IRwI=-1 IRwCP=  731 ICalc= -1 LCPTot=     1419224 Len1MO=     3708034 IndFrg=     1419224
 CPIOFr:  IOpCl= 0 IRwI=-1 IRwCP=  731 ICalc=  0 LCPTot=     1419224 Len1MO=     3708034 IndFrg=     5127258
 Counterpoise: doing calculation for fragment   1 using the basis set of the full-system, NewBq=T
 Leave Link  122 at Wed Sep 27 16:39:53 2023, MaxMem=  3221225472 cpu:               8.4 elap:               0.3
 (Enter /home/center/opt/aarch64/apps/gaussian16/c01/g16/l301.exe)
 Basis read from rwf:  (5D, 7F)
 No pseudopotential information found on rwf file.
 There are   528 symmetry adapted cartesian basis functions of A'  symmetry.
 There are   476 symmetry adapted cartesian basis functions of A"  symmetry.
 There are   504 symmetry adapted basis functions of A'  symmetry.
 There are   456 symmetry adapted basis functions of A"  symmetry.
   960 basis functions,  1632 primitive gaussians,  1004 cartesian basis functions
    73 alpha electrons       73 beta electrons
       nuclear repulsion energy      1494.3575060657 Hartrees.
 IExCor=  402 DFT=T Ex+Corr=B3LYP ExCW=0 ScaHFX=  0.200000
 ScaDFX=  0.800000  0.720000  1.000000  0.810000 ScalE2=  1.000000  1.000000
 IRadAn=      5 IRanWt=     -1 IRanGd=            0 ICorTp=0 IEmpDi=131
 NAtoms=   72 NActive=   72 NUniq=   40 SFac= 3.24D+00 NAtFMM=   60 NAOKFM=T Big=F
 Integral buffers will be    131072 words long.
 Raffenetti 2 integral format.
 Two-electron integral symmetry is turned on.
 R6Disp:  Grimme-D3 Dispersion energy=       -0.0303938888 Hartrees.
 Nuclear repulsion after empirical dispersion term =     1494.3271121769 Hartrees.
 No density basis found on file    718.
 Leave Link  301 at Wed Sep 27 16:39:55 2023, MaxMem=  3221225472 cpu:               2.3 elap:               0.1
 (Enter /home/center/opt/aarch64/apps/gaussian16/c01/g16/l302.exe)
 NPDir=0 NMtPBC=     1 NCelOv=     1 NCel=       1 NClECP=     1 NCelD=      1
         NCelK=      1 NCelE2=     1 NClLst=     1 CellRange=     0.0.
 One-electron integrals computed using PRISM.
 One-electron integral symmetry used in STVInt
 NBasis=   960 RedAO= T EigKep=  3.67D-05  NBF=   504   456
 NBsUse=   960 1.00D-06 EigRej= -1.00D+00 NBFU=   504   456
 Precomputing XC quadrature grid using
 IXCGrd= 4 IRadAn=           5 IRanWt=          -1 IRanGd=           0 AccXCQ= 0.00D+00.
 Generated NRdTot=       0 NPtTot=           0 NUsed=           0 NTot=          32
 NSgBfM=   991   991   991   991   991 MxSgAt=    72 MxSgA2=    72.
 Leave Link  302 at Wed Sep 27 16:39:59 2023, MaxMem=  3221225472 cpu:              58.5 elap:               1.6
 (Enter /home/center/opt/aarch64/apps/gaussian16/c01/g16/l303.exe)
 DipDrv:  MaxL=1.
 Leave Link  303 at Wed Sep 27 16:40:02 2023, MaxMem=  3221225472 cpu:              12.8 elap:               0.4
 (Enter /home/center/opt/aarch64/apps/gaussian16/c01/g16/l401.exe)
 ExpMin= 1.03D-01 ExpMax= 4.56D+03 ExpMxC= 6.82D+02 IAcc=3 IRadAn=         5 AccDes= 0.00D+00
 Harris functional with IExCor=  402 and IRadAn=       5 diagonalized for initial guess.
 HarFok:  IExCor=  402 AccDes= 0.00D+00 IRadAn=         5 IDoV= 1 UseB2=F ITyADJ=14
 ICtDFT=  3500011 ScaDFX=  1.000000  1.000000  1.000000  1.000000
 FoFCou: FMM=F IPFlag=           0 FMFlag=      100000 FMFlg1=        2000
         NFxFlg=           0 DoJE=T BraDBF=F KetDBF=T FulRan=T
         wScrn=  0.000000 ICntrl=       500 IOpCl=  0 I1Cent=   200000004 NGrid=           0
         NMat0=    1 NMatS0=      1 NMatT0=    0 NMatD0=    1 NMtDS0=    0 NMtDT0=    0
 Petite list used in FoFCou.
 Harris En= -847.066727779951    
 JPrj=0 DoOrth=F DoCkMO=F.
 Initial guess orbital symmetries:
       Occupied  (A") (A') (A') (A") (A") (A') (A") (A') (A') (A")
                 (A") (A') (A') (A') (A") (A') (A") (A') (A") (A')
                 (A') (A") (A') (A") (A') (A") (A') (A') (A") (A')
                 (A") (A") (A') (A') (A") (A") (A') (A") (A') (A')
                 (A') (A") (A") (A") (A') (A') (A") (A') (A') (A")
                 (A') (A") (A") (A') (A') (A") (A') (A") (A') (A")
                 (A") (A') (A') (A") (A') (A") (A') (A") (A') (A')
                 (A") (A") (A')
       Virtual   (A') (A") (A") (A') (A') (A") (A') (A") (A') (A")
                 (A') (A') (A") (A') (A") (A') (A') (A") (A') (A")
                 (A") (A") (A') (A') (A") (A') (A') (A') (A') (A")
                 (A') (A") (A") (A') (A') (A") (A') (A") (A") (A')
                 (A') (A") (A") (A') (A") (A') (A") (A') (A") (A')
                 (A') (A") (A") (A') (A') (A') (A") (A") (A') (A")
                 (A') (A') (A') (A') (A") (A") (A") (A') (A") (A')
                 (A') (A") (A") (A') (A') (A') (A") (A') (A') (A")
                 (A') (A") (A") (A') (A") (A') (A') (A") (A") (A')
                 (A") (A") (A") (A') (A') (A") (A') (A") (A') (A')
                 (A') (A") (A') (A") (A') (A') (A") (A') (A') (A")
                 (A") (A') (A") (A') (A") (A') (A") (A") (A") (A')
                 (A') (A") (A') (A") (A') (A') (A') (A") (A') (A")
                 (A') (A') (A") (A") (A') (A") (A') (A') (A") (A')
                 (A') (A") (A') (A") (A') (A") (A') (A") (A") (A")
                 (A') (A") (A') (A') (A") (A') (A") (A') (A') (A")
                 (A') (A") (A') (A") (A') (A') (A") (A') (A") (A")
                 (A") (A') (A") (A') (A') (A') (A") (A") (A') (A")
                 (A') (A") (A') (A") (A') (A") (A') (A') (A") (A")
                 (A') (A') (A') (A') (A") (A") (A") (A') (A') (A")
                 (A') (A") (A') (A") (A') (A") (A') (A") (A") (A')
                 (A') (A") (A') (A") (A') (A") (A') (A") (A") (A')
                 (A") (A') (A') (A') (A") (A") (A') (A') (A") (A')
                 (A') (A") (A') (A") (A") (A') (A") (A") (A') (A")
                 (A') (A') (A") (A') (A") (A') (A") (A') (A") (A')
                 (A") (A') (A") (A') (A") (A') (A") (A') (A") (A')
                 (A") (A') (A") (A') (A') (A") (A') (A') (A") (A')
                 (A") (A') (A") (A") (A") (A') (A") (A') (A") (A')
                 (A") (A') (A") (A') (A') (A") (A') (A") (A') (A')
                 (A") (A') (A") (A') (A') (A') (A") (A') (A") (A")
                 (A') (A') (A") (A') (A") (A") (A") (A') (A') (A")
                 (A") (A') (A') (A") (A') (A') (A") (A") (A') (A")
                 (A") (A') (A') (A") (A') (A') (A") (A') (A') (A")
                 (A') (A') (A") (A') (A") (A') (A") (A') (A") (A")
                 (A') (A") (A') (A") (A") (A') (A") (A') (A') (A')
                 (A") (A') (A") (A') (A") (A') (A") (A') (A') (A')
                 (A") (A') (A") (A') (A") (A") (A') (A") (A') (A")
                 (A') (A") (A") (A") (A') (A') (A') (A") (A") (A')
                 (A") (A') (A") (A') (A") (A') (A') (A") (A') (A")
                 (A') (A") (A") (A') (A') (A') (A") (A") (A') (A")
                 (A') (A") (A") (A') (A") (A") (A') (A') (A') (A")
                 (A') (A") (A') (A') (A") (A') (A') (A") (A') (A")
                 (A") (A') (A") (A") (A') (A") (A') (A") (A") (A')
                 (A") (A') (A') (A') (A') (A') (A") (A") (A") (A')
                 (A") (A') (A') (A") (A") (A') (A') (A') (A") (A")
                 (A") (A') (A') (A') (A") (A') (A') (A") (A") (A")
                 (A") (A') (A') (A') (A") (A") (A") (A') (A') (A")
                 (A') (A') (A") (A") (A') (A") (A") (A') (A") (A')
                 (A') (A") (A") (A') (A") (A') (A') (A") (A") (A')
                 (A") (A') (A') (A') (A") (A") (A') (A") (A') (A")
                 (A") (A') (A') (A") (A') (A") (A') (A') (A") (A")
                 (A') (A") (A') (A") (A") (A') (A") (A') (A') (A')
                 (A') (A") (A") (A") (A') (A") (A') (A") (A') (A")
                 (A') (A') (A') (A") (A') (A") (A") (A') (A') (A')
                 (A") (A") (A') (A") (A') (A') (A") (A') (A") (A')
                 (A") (A') (A") (A') (A") (A') (A") (A') (A") (A')
                 (A') (A") (A') (A") (A") (A') (A") (A") (A') (A')
                 (A") (A') (A') (A') (A") (A') (A') (A") (A") (A')
                 (A") (A") (A") (A') (A") (A') (A') (A") (A') (A")
                 (A') (A') (A") (A') (A') (A") (A") (A') (A') (A")
                 (A") (A') (A") (A') (A") (A") (A') (A") (A') (A')
                 (A") (A') (A') (A") (A') (A") (A') (A") (A') (A')
                 (A") (A') (A") (A") (A') (A") (A") (A') (A") (A')
                 (A") (A") (A') (A") (A") (A') (A') (A') (A') (A')
                 (A") (A") (A") (A') (A") (A') (A') (A') (A") (A")
                 (A') (A") (A') (A") (A') (A") (A") (A') (A") (A')
                 (A") (A') (A") (A") (A') (A") (A') (A') (A") (A')
                 (A') (A") (A") (A') (A') (A") (A') (A") (A') (A')
                 (A") (A') (A") (A') (A") (A') (A") (A') (A') (A")
                 (A') (A") (A') (A') (A") (A") (A') (A") (A') (A')
[...]
                 (A') (A") (A') (A') (A') (A") (A") (A") (A") (A')
                 (A') (A') (A") (A") (A') (A") (A') (A") (A') (A')
                 (A") (A") (A')
       Virtual   (A') (A") (A") (A') (A') (A") (A') (A') (A') (A")
                 (A") (A') (A") (A') (A") (A') (A") (A") (A') (A")
                 (A') (A') (A") (A') (A") (A') (A') (A') (A') (A")
                 (A") (A") (A") (A') (A') (A") (A') (A") (A') (A")
                 (A') (A') (A') (A") (A') (A") (A") (A') (A') (A")
                 (A") (A') (A') (A") (A') (A") (A") (A") (A') (A")
                 (A') (A') (A') (A') (A') (A") (A') (A') (A") (A")
                 (A") (A') (A') (A') (A") (A') (A") (A") (A") (A')
                 (A') (A") (A') (A") (A") (A') (A") (A') (A') (A')
                 (A') (A') (A") (A") (A") (A") (A') (A") (A') (A")
                 (A') (A') (A') (A") (A") (A') (A') (A") (A') (A")
                 (A') (A") (A") (A") (A') (A') (A") (A') (A') (A")
                 (A') (A") (A") (A') (A') (A") (A') (A") (A') (A")
                 (A") (A') (A') (A') (A') (A") (A") (A") (A') (A")
                 (A') (A") (A') (A") (A') (A') (A") (A") (A') (A")
                 (A') (A") (A') (A") (A') (A') (A") (A') (A") (A")
                 (A') (A") (A') (A') (A") (A") (A') (A") (A') (A")
                 (A') (A') (A") (A') (A') (A") (A") (A') (A') (A')
                 (A") (A') (A") (A") (A") (A") (A') (A") (A') (A')
                 (A") (A') (A") (A') (A') (A') (A") (A') (A") (A')
                 (A") (A") (A') (A') (A") (A") (A') (A') (A") (A')
                 (A') (A') (A') (A") (A") (A") (A") (A') (A') (A")
                 (A') (A") (A") (A') (A") (A') (A") (A') (A") (A')
                 (A") (A') (A') (A") (A') (A") (A") (A') (A') (A")
                 (A") (A') (A') (A") (A") (A') (A") (A") (A") (A')
                 (A') (A") (A') (A') (A") (A') (A') (A") (A') (A")
                 (A") (A') (A") (A') (A') (A") (A") (A") (A') (A')
                 (A") (A') (A') (A") (A") (A") (A') (A") (A') (A')
                 (A") (A') (A") (A') (A") (A') (A') (A') (A") (A')
                 (A") (A") (A') (A') (A") (A") (A') (A") (A') (A")
                 (A') (A') (A") (A") (A') (A') (A") (A') (A') (A')
                 (A") (A") (A') (A") (A') (A") (A') (A") (A') (A')
                 (A') (A") (A") (A") (A') (A") (A') (A') (A') (A")
                 (A") (A') (A") (A') (A') (A") (A') (A") (A") (A')
                 (A') (A") (A') (A") (A") (A') (A') (A") (A') (A")
                 (A') (A") (A') (A") (A') (A") (A") (A') (A') (A")
                 (A') (A") (A') (A') (A") (A") (A') (A") (A') (A')
                 (A") (A') (A") (A') (A') (A") (A') (A") (A') (A")
                 (A") (A') (A") (A') (A") (A') (A") (A') (A') (A")
                 (A") (A') (A") (A') (A') (A") (A") (A') (A') (A")
                 (A') (A") (A') (A") (A') (A') (A")
 The electronic state is 1-A'.
 Alpha  occ. eigenvalues --  -10.18931 -10.18930 -10.18896 -10.18895 -10.18848
 Alpha  occ. eigenvalues --  -10.18848 -10.18813 -10.18813 -10.17956 -10.17955
 Alpha  occ. eigenvalues --  -10.17920 -10.17920 -10.17919 -10.17919 -10.17875
 Alpha  occ. eigenvalues --  -10.17875 -10.17863 -10.17863 -10.17808 -10.17808
 Alpha  occ. eigenvalues --  -10.17781 -10.17781  -0.89340  -0.87865  -0.85549
 Alpha  occ. eigenvalues --   -0.82415  -0.79820  -0.78521  -0.78314  -0.75991
 Alpha  occ. eigenvalues --   -0.74255  -0.72901  -0.69196  -0.67344  -0.62728
 Alpha  occ. eigenvalues --   -0.62370  -0.61108  -0.59964  -0.59301  -0.57689
 Alpha  occ. eigenvalues --   -0.52709  -0.52573  -0.52293  -0.49654  -0.48513
 Alpha  occ. eigenvalues --   -0.47160  -0.46110  -0.45590  -0.45476  -0.43928
 Alpha  occ. eigenvalues --   -0.43182  -0.42578  -0.41808  -0.41572  -0.41386
 Alpha  occ. eigenvalues --   -0.40692  -0.40405  -0.39579  -0.38193  -0.36732
 Alpha  occ. eigenvalues --   -0.36341  -0.35550  -0.34094  -0.33809  -0.33058
 Alpha  occ. eigenvalues --   -0.32930  -0.31612  -0.29665  -0.28406  -0.26623
 Alpha  occ. eigenvalues --   -0.24364  -0.22582  -0.17855
 Alpha virt. eigenvalues --   -0.09755  -0.04464  -0.02747  -0.00147   0.02073
 Alpha virt. eigenvalues --    0.02370   0.03189   0.04746   0.04859   0.04871
 Alpha virt. eigenvalues --    0.06161   0.06575   0.07968   0.08162   0.08303
 Alpha virt. eigenvalues --    0.09607   0.10049   0.11524   0.11533   0.13796
 Alpha virt. eigenvalues --    0.14111   0.14670   0.18092   0.18194   0.18832
 Alpha virt. eigenvalues --    0.19391   0.22815   0.23002   0.24379   0.24942
 Alpha virt. eigenvalues --    0.25581   0.27528   0.27575   0.28012   0.28228
 Alpha virt. eigenvalues --    0.28947   0.29389   0.30158   0.30759   0.31175
 Alpha virt. eigenvalues --    0.32897   0.34528   0.36420   0.36484   0.37134
 Alpha virt. eigenvalues --    0.37503   0.37629   0.37651   0.38116   0.38643
 Alpha virt. eigenvalues --    0.39094   0.39439   0.39739   0.40236   0.40435
 Alpha virt. eigenvalues --    0.41918   0.41926   0.41940   0.42289   0.42318
 Alpha virt. eigenvalues --    0.42643   0.43748   0.44233   0.44835   0.45295
 Alpha virt. eigenvalues --    0.45683   0.45924   0.45953   0.46379   0.47165
 Alpha virt. eigenvalues --    0.47805   0.47809   0.47978   0.48073   0.48231
 Alpha virt. eigenvalues --    0.48568   0.49414   0.49572   0.51377   0.51846
 Alpha virt. eigenvalues --    0.52370   0.53118   0.53671   0.55998   0.57923
 Alpha virt. eigenvalues --    0.57955   0.59048   0.59201   0.60433   0.60585
 Alpha virt. eigenvalues --    0.60693   0.61101   0.61690   0.62105   0.62173
 Alpha virt. eigenvalues --    0.63432   0.63481   0.64458   0.64535   0.65533
 Alpha virt. eigenvalues --    0.66693   0.66910   0.67680   0.67724   0.70658
 Alpha virt. eigenvalues --    0.71305   0.71405   0.71494   0.72803   0.73989
 Alpha virt. eigenvalues --    0.75405   0.75894   0.76289   0.77801   0.77809
 Alpha virt. eigenvalues --    0.78943   0.79160   0.79723   0.81162   0.81509
 Alpha virt. eigenvalues --    0.82881   0.83001   0.84383   0.84585   0.84713
 Alpha virt. eigenvalues --    0.88087   0.89711   0.89765   0.91536   0.92083
 Alpha virt. eigenvalues --    0.92578   0.93749   0.95806   0.96107   0.96442
 Alpha virt. eigenvalues --    0.96590   0.96905   0.98547   1.00356   1.01118
 Alpha virt. eigenvalues --    1.02686   1.03027   1.03354   1.04405   1.05244
 Alpha virt. eigenvalues --    1.05439   1.05525   1.05950   1.07395   1.07547
 Alpha virt. eigenvalues --    1.07686   1.08438   1.10005   1.10036   1.12070
 Alpha virt. eigenvalues --    1.13223   1.13544   1.13650   1.14526   1.15341
 Alpha virt. eigenvalues --    1.17432   1.18332   1.19657   1.20432   1.23014
 Alpha virt. eigenvalues --    1.23618   1.27884   1.28234   1.30579   1.32076
 Alpha virt. eigenvalues --    1.32743   1.34942   1.37641   1.39236   1.39896
 Alpha virt. eigenvalues --    1.39942   1.40725   1.42751   1.43476   1.43554
 Alpha virt. eigenvalues --    1.45057   1.46086   1.47119   1.47538   1.48841
 Alpha virt. eigenvalues --    1.49280   1.49417   1.50258   1.50674   1.52268
 Alpha virt. eigenvalues --    1.52650   1.53402   1.54331   1.54372   1.54781
 Alpha virt. eigenvalues --    1.54807   1.57107   1.57715   1.58569   1.59882
 Alpha virt. eigenvalues --    1.60106   1.62692   1.63242   1.64856   1.66641
 Alpha virt. eigenvalues --    1.69292   1.69605   1.69709   1.70649   1.71804
 Alpha virt. eigenvalues --    1.72459   1.72619   1.73075   1.73096   1.73680
 Alpha virt. eigenvalues --    1.77494   1.78519   1.79157   1.79419   1.80511
 Alpha virt. eigenvalues --    1.81616   1.81887   1.82058   1.83581   1.84039
 Alpha virt. eigenvalues --    1.85487   1.87392   1.87456   1.87577   1.87728
 Alpha virt. eigenvalues --    1.88131   1.88613   1.90743   1.91387   1.92190
 Alpha virt. eigenvalues --    1.92193   1.92572   1.92670   1.93517   1.93938
 Alpha virt. eigenvalues --    1.94544   1.95483   1.97262   1.99429   2.00088
 Alpha virt. eigenvalues --    2.00602   2.01362   2.03019   2.05757   2.08293
 Alpha virt. eigenvalues --    2.09111   2.09256   2.09792   2.12192   2.14098
 Alpha virt. eigenvalues --    2.15528   2.15584   2.17200   2.19751   2.20833
 Alpha virt. eigenvalues --    2.21576   2.22525   2.23381   2.24503   2.26441
 Alpha virt. eigenvalues --    2.26972   2.27242   2.27719   2.28046   2.29391
 Alpha virt. eigenvalues --    2.33301   2.35725   2.39155   2.39384   2.40817
 Alpha virt. eigenvalues --    2.42649   2.43076   2.45776   2.45994   2.46870
 Alpha virt. eigenvalues --    2.51623   2.51954   2.53354   2.53485   2.55138
 Alpha virt. eigenvalues --    2.56159   2.58701   2.58838   2.59764   2.59776
 Alpha virt. eigenvalues --    2.60682   2.61147   2.61719   2.62222   2.63349
 Alpha virt. eigenvalues --    2.63999   2.64478   2.66054   2.66794   2.67121
 Alpha virt. eigenvalues --    2.67374   2.68356   2.68872   2.68876   2.69372
 Alpha virt. eigenvalues --    2.69557   2.69907   2.70083   2.70281   2.73482
 Alpha virt. eigenvalues --    2.74771   2.74836   2.76066   2.77101   2.77577
 Alpha virt. eigenvalues --    2.78232   2.78455   2.78850   2.80822   2.82359
 Alpha virt. eigenvalues --    2.85535   2.85993   2.86737   2.87294   2.90966
 Alpha virt. eigenvalues --    2.91783   2.92195   2.93676   2.95232   2.95887
 Alpha virt. eigenvalues --    2.99270   2.99858   3.03165   3.05604   3.06852
 Alpha virt. eigenvalues --    3.07371   3.15988   3.16029   3.16647   3.19843
 Alpha virt. eigenvalues --    3.20017   3.23601   3.29134   3.29680   3.31610
 Alpha virt. eigenvalues --    3.35095   3.35458   3.35677   3.35858   3.38023
 Alpha virt. eigenvalues --    3.39887   3.41413   3.44960   3.45362   3.47993
 Alpha virt. eigenvalues --    3.48278   3.50401   3.53073   3.57439   3.58649
 Alpha virt. eigenvalues --    3.61466   3.62620   3.63208   3.63698   3.65910
 Alpha virt. eigenvalues --    3.67534   3.67678   4.00384   4.00442   4.01859
 Alpha virt. eigenvalues --    4.02182   4.16133   4.16678   4.17360   4.21240
 Alpha virt. eigenvalues --    4.22396   4.22517   4.25488   4.38492   4.62290
 Alpha virt. eigenvalues --    4.79179   4.79740   4.80562   4.82562   4.83014
 Alpha virt. eigenvalues --   23.39176  23.54541  23.69085  23.77378  23.80419
 Alpha virt. eigenvalues --   23.81537  23.86099  23.89067  23.89154  23.92210
 Alpha virt. eigenvalues --   23.97563  23.98365  24.09049  24.09932  24.10529
 Alpha virt. eigenvalues --   24.12220  24.13779  24.14375  24.15775  24.15810
 Alpha virt. eigenvalues --   24.20452  24.20497
          Condensed to atoms (all electrons):
 Mulliken charges:
               1
     1  C    0.000000
     2  C    0.000000
     3  C    0.000000
     4  C    0.000000
     5  C    0.000000
     6  C    0.000000
     7  C    0.000000
     8  C    0.000000
     9  C    0.000000
    10  C    0.000000
    11  H    0.000000
    12  H    0.000000
    13  H    0.000000
    14  H    0.000000
    15  H    0.000000
    16  H    0.000000
    17  C    0.000000
    18  C    0.000000
    19  C    0.000000
    20  C    0.000000
    21  H    0.000000
    22  H    0.000000
    23  C    0.000000
    24  C    0.000000
    25  C    0.000000
    26  C    0.000000
    27  H    0.000000
    28  H    0.000000
    29  C    0.000000
    30  C    0.000000
    31  C    0.000000
    32  C    0.000000
    33  H    0.000000
    34  H    0.000000
    35  H    0.000000
    36  H    0.000000
    37  C   -0.059168
    38  C   -0.059168
    39  C   -0.055977
    40  C   -0.055977
    41  C   -0.092198
    42  C   -0.092198
    43  C   -0.016525
    44  C   -0.054498
    45  C   -0.016525
    46  C   -0.054498
    47  H    0.082122
    48  H    0.074853
    49  H    0.074853
    50  H    0.082122
    51  H    0.094847
    52  H    0.094847
    53  C   -0.020341
    54  C   -0.054498
    55  C   -0.020341
    56  C   -0.054498
    57  H    0.073428
    58  H    0.073428
    59  C   -0.016525
    60  C   -0.059168
    61  C   -0.016525
    62  C   -0.059168
    63  H    0.074853
    64  H    0.074853
    65  C   -0.055977
    66  C   -0.092198
    67  C   -0.055977
    68  C   -0.092198
    69  H    0.082122
    70  H    0.094847
    71  H    0.094847
    72  H    0.082122
 Sum of Mulliken charges =   0.00000
 Mulliken charges with hydrogens summed into heavy atoms:
               1
     1  C    0.000000
     2  C    0.000000
     3  C    0.000000
     4  C    0.000000
     5  C    0.000000
     6  C    0.000000
     7  C    0.000000
     8  C    0.000000
     9  C    0.000000
    10  C    0.000000
    17  C    0.000000
    18  C    0.000000
    19  C    0.000000
    20  C    0.000000
    23  C    0.000000
    24  C    0.000000
    25  C    0.000000
    26  C    0.000000
    29  C    0.000000
    30  C    0.000000
    31  C    0.000000
    32  C    0.000000
    37  C   -0.059168
    38  C   -0.059168
    39  C    0.026144
    40  C    0.026144
    41  C    0.002649
    42  C    0.002649
    43  C    0.058328
    44  C   -0.054498
    45  C    0.058328
    46  C   -0.054498
    53  C    0.053087
    54  C   -0.054498
    55  C    0.053087
    56  C   -0.054498
    59  C    0.058328
    60  C   -0.059168
    61  C    0.058328
    62  C   -0.059168
    65  C    0.026144
    66  C    0.002649
    67  C    0.026144
    68  C    0.002649
         Mulliken charges condensed to fragments:
      1      0.000000
      2      0.000000
 Electronic spatial extent (au):  <R**2>=          12556.7820
 Charge=              0.0000 electrons
 Dipole moment (field-independent basis, Debye):
    X=              0.0000    Y=              0.0000    Z=              0.0000  Tot=              0.0000
 Quadrupole moment (field-independent basis, Debye-Ang):
   XX=           -136.3921   YY=           -110.7480   ZZ=           -109.0115
   XY=              0.0000   XZ=              0.0000   YZ=              0.0000
 Traceless Quadrupole moment (field-independent basis, Debye-Ang):
   XX=            -17.6749   YY=              7.9692   ZZ=              9.7057
   XY=              0.0000   XZ=              0.0000   YZ=              0.0000
 Octapole moment (field-independent basis, Debye-Ang**2):
  XXX=            723.3281  YYY=            587.3301  ZZZ=              0.0000  XYY=            195.7767
  XXY=            241.1094  XXZ=              0.0000  XZZ=            192.7069  YZZ=            192.7069
  YYZ=              0.0000  XYZ=              0.0000
 Hexadecapole moment (field-independent basis, Debye-Ang**3):
 XXXX=          -2711.7550 YYYY=          -3193.2425 ZZZZ=         -10461.4324 XXXY=          -1278.6755
 XXXZ=              0.0000 YYYX=          -1038.2628 YYYZ=              0.0000 ZZZX=              0.0000
 ZZZY=              0.0000 XXYY=          -1028.7281 XXZZ=          -2548.5928 YYZZ=          -2309.8752
 XXYZ=              0.0000 YYXZ=              0.0000 ZZXY=           -340.6608
 N-N= 1.494327112193D+03 E-N=-4.953709175941D+03  KE= 8.433374905104D+02
 Symmetry A'   KE= 4.567052305456D+02
 Symmetry A"   KE= 3.866322599648D+02
 No NMR shielding tensors so no spin-rotation constants.
 Leave Link  601 at Wed Sep 27 16:57:39 2023, MaxMem=  3221225472 cpu:              18.5 elap:               0.5
 (Enter /home/center/opt/aarch64/apps/gaussian16/c01/g16/l122.exe)
 CPIOFr:  IOpCl= 0 IRwI=-1 IRwCP=  731 ICalc=  4 LCPTot=     1419224 Len1MO=     3708034 IndFrg=    19959394
 Restoring MOs from calculation   1 to rwf.
 CPIOFr:  IOpCl= 0 IRwI=-2 IRwCP=  731 ICalc=  0 LCPTot=     1419224 Len1MO=     3708034 IndFrg=     5127258
 Counterpoise corrected energy =   -1694.055946605940
                   BSSE energy =       0.002904930036
              sum of fragments =   -1694.039683044266
           complexation energy =     -12.03 kcal/mole (raw)
           complexation energy =     -10.21 kcal/mole (corrected)
 Leave Link  122 at Wed Sep 27 16:57:41 2023, MaxMem=  3221225472 cpu:               8.3 elap:               0.4
 (Enter /home/center/opt/aarch64/apps/gaussian16/c01/g16/l9999.exe)

 Test job not archived.
 1\1\GINC-FX0463\SP\RB3LYP\6-311G(d,p)\C44H28\Z40145W\27-Sep-2023\0\\#P
  TEST b3lyp/6-311G** EmpiricalDispersion=GD3 counterpoise=2\\pentacene
 _A1=0_A2=0_A3=45_p2\\0,1\C,0,-0.5039478476,0.5239478476,-3.6612755801\
 C,0,0.5239480325,-0.5039480325,-3.6612755629\C,0,-0.9861248463,1.00612
 48463,-4.9235927708\C,0,1.0061250889,-0.9861250889,-4.9235926697\C,0,-
 0.4963213507,0.5163213507,-6.096356521\C,0,0.5163216812,-0.4963216812,
 -6.0963564796\C,0,-0.9844684311,1.0044684311,-2.4533174875\C,0,-0.5044
 88426,0.524488426,-1.2140288145\C,0,1.0044685359,-0.9844685359,-2.4533
 173917\C,0,0.5244885437,-0.5044885437,-1.2140288362\H,0,-1.7533559667,
 1.7733559667,-4.9232600459\H,0,-1.7521866813,1.7721866813,-2.453928581
 5\H,0,1.7721859268,-1.7521859268,-2.4539284818\H,0,1.7733558421,-1.753
 3558421,-4.9232597785\H,0,0.8905568758,-0.8705568758,-7.0425276922\H,0
 ,-0.8705565046,0.8905565046,-7.042527775\C,0,-0.9848184961,1.004818496
 1,0.0099998782\C,0,-0.5044883957,0.5244883957,1.2340295553\C,0,1.00481
 85643,-0.9848185643,0.0099998696\C,0,0.5244885146,-0.5044885146,1.2340
 295261\H,0,-1.7524699697,1.7724699697,0.0099999205\H,0,1.772468921,-1.
 752468921,0.0099999641\C,0,-0.9844683048,1.0044683048,2.4733171385\C,0
 ,-0.5039477114,0.5239477114,3.681276331\C,0,1.0044684211,-0.9844684211
 ,2.4733170835\C,0,0.5239479079,-0.5039479079,3.6812763217\H,0,-1.75218
 65527,1.7721865527,2.4739285326\H,0,1.7721858092,-1.7521858092,2.47392
 83796\C,0,-0.9861245177,1.0061245177,4.9435920588\C,0,-0.4963209372,0.
 5163209372,6.116356633\C,0,1.0061247659,-0.9861247659,4.9435919377\C,0
 ,0.5163212637,-0.4963212637,6.1163566075\H,0,-1.7533556504,1.773355650
 4,4.9432601504\H,0,-0.8705567426,0.8905567426,7.0625274368\H,0,0.89055
 70967,-0.8705570967,7.0625272142\H,0,1.7733555414,-1.7533555414,4.9432
 599297\C,0,4.4960521524,0.5239478476,-3.6612755801\C,0,5.5239480325,-0
 .5039480325,-3.6612755629\C,0,4.0138751537,1.0061248463,-4.9235927708\
 C,0,6.0061250889,-0.9861250889,-4.9235926697\C,0,4.5036786493,0.516321
 3507,-6.096356521\C,0,5.5163216812,-0.4963216812,-6.0963564796\C,0,4.0
 155315689,1.0044684311,-2.4533174875\C,0,4.495511574,0.524488426,-1.21
 40288145\C,0,6.0044685359,-0.9844685359,-2.4533173917\C,0,5.5244885437
 ,-0.5044885437,-1.2140288362\H,0,3.2466440333,1.7733559667,-4.92326004
 59\H,0,3.2478133187,1.7721866813,-2.4539285815\H,0,6.7721859268,-1.752
 1859268,-2.4539284818\H,0,6.7733558421,-1.7533558421,-4.9232597785\H,0
 ,5.8905568758,-0.8705568758,-7.0425276922\H,0,4.1294434954,0.890556504
 6,-7.042527775\C,0,4.0151815039,1.0048184961,0.0099998782\C,0,4.495511
 6043,0.5244883957,1.2340295553\C,0,6.0048185643,-0.9848185643,0.009999
 8696\C,0,5.5244885146,-0.5044885146,1.2340295261\H,0,3.2475300303,1.77
 24699697,0.0099999205\H,0,6.772468921,-1.752468921,0.0099999641\C,0,4.
 0155316952,1.0044683048,2.4733171385\C,0,4.4960522886,0.5239477114,3.6
 81276331\C,0,6.0044684211,-0.9844684211,2.4733170835\C,0,5.5239479079,
 -0.5039479079,3.6812763217\H,0,3.2478134473,1.7721865527,2.4739285326\
 H,0,6.7721858092,-1.7521858092,2.4739283796\C,0,4.0138754823,1.0061245
 177,4.9435920588\C,0,4.5036790628,0.5163209372,6.116356633\C,0,6.00612
 47659,-0.9861247659,4.9435919377\C,0,5.5163212637,-0.4963212637,6.1163
 566075\H,0,3.2466443496,1.7733556504,4.9432601504\H,0,4.1294432574,0.8
 905567426,7.0625274368\H,0,5.8905570967,-0.8705570967,7.0625272142\H,0
 ,6.7733555414,-1.7533555414,4.9432599297\\Version=Fujitsu-Arm-G16RevC.
 01\State=1-A'\HF=-847.0198415\RMSD=3.181e-09\Dipole=-0.0000009,0.00000
 11,0.\Quadrupole=-8.9382346,-5.3835131,14.3217477,-17.4479777,0.,0.\PG
 =CS [SG(C4H4),X(C40H24)]\\@


 A MAN BEGINS CUTTING HIS WISDOM TEETH THE 1ST
 TIME HE BITES OFF MORE THAN HE CAN CHEW.
 Job cpu time:       0 days  3 hours 35 minutes 30.0 seconds.
 Elapsed time:       0 days  0 hours  5 minutes 38.1 seconds.
 File lengths (MBytes):  RWF=    718 Int=      0 D2E=      0 Chk=    208 Scr=      1
 Normal termination of Gaussian 16 at Wed Sep 27 16:57:47 2023.
