 Entering Gaussian System, Link 0=g16
 Initial command:
 /home/center/opt/aarch64/apps/gaussian16/c01/g16/l1.exe "/data/tmp/Gtmp/1006946/Gau-50.inp" -scrdir="/data/tmp/Gtmp/1006946/"
 Entering Link 1 = /home/center/opt/aarch64/apps/gaussian16/c01/g16/l1.exe PID=        51.
  
 Copyright (c) 1988-2019, Gaussian, Inc.  All Rights Reserved.
  
 This is part of the Gaussian(R) 16 program.  It is based on
 the Gaussian(R) 09 system (copyright 2009, Gaussian, Inc.),
 the Gaussian(R) 03 system (copyright 2003, Gaussian, Inc.),
 the Gaussian(R) 98 system (copyright 1998, Gaussian, Inc.),
 the Gaussian(R) 94 system (copyright 1995, Gaussian, Inc.),
 the Gaussian 92(TM) system (copyright 1992, Gaussian, Inc.),
 the Gaussian 90(TM) system (copyright 1990, Gaussian, Inc.),
 the Gaussian 88(TM) system (copyright 1988, Gaussian, Inc.),
 the Gaussian 86(TM) system (copyright 1986, Carnegie Mellon
 University), and the Gaussian 82(TM) system (copyright 1983,
 Carnegie Mellon University). Gaussian is a federally registered
 trademark of Gaussian, Inc.
  
 This software contains proprietary and confidential information,
 including trade secrets, belonging to Gaussian, Inc.
  
 This software is provided under written license and may be
 used, copied, transmitted, or stored only in accord with that
 written license.
  
 The following legend is applicable only to US Government
 contracts under FAR:
  
                    RESTRICTED RIGHTS LEGEND
  
 Use, reproduction and disclosure by the US Government is
 subject to restrictions as set forth in subparagraphs (a)
 and (c) of the Commercial Computer Software - Restricted
 Rights clause in FAR 52.227-19.
  
 Gaussian, Inc.
 340 Quinnipiac St., Bldg. 40, Wallingford CT 06492
  
  
 ---------------------------------------------------------------
 Warning -- This program may not be used in any manner that
 competes with the business of Gaussian, Inc. or will provide
 assistance to any competitor of Gaussian, Inc.  The licensee
 of this program is prohibited from giving any competitor of
 Gaussian, Inc. access to this program.  By using this program,
 the user acknowledges that Gaussian, Inc. is engaged in the
 business of creating and licensing software in the field of
 computational chemistry and represents and warrants to the
 licensee that it is not a competitor of Gaussian, Inc. and that
 it will not use this program in any manner prohibited above.
 ---------------------------------------------------------------
  

 Cite this work as:
 Gaussian 16, Revision C.01,
 M. J. Frisch, G. W. Trucks, H. B. Schlegel, G. E. Scuseria, 
 M. A. Robb, J. R. Cheeseman, G. Scalmani, V. Barone, 
 G. A. Petersson, H. Nakatsuji, X. Li, M. Caricato, A. V. Marenich, 
 J. Bloino, B. G. Janesko, R. Gomperts, B. Mennucci, H. P. Hratchian, 
 J. V. Ortiz, A. F. Izmaylov, J. L. Sonnenberg, D. Williams-Young, 
 F. Ding, F. Lipparini, F. Egidi, J. Goings, B. Peng, A. Petrone, 
 T. Henderson, D. Ranasinghe, V. G. Zakrzewski, J. Gao, N. Rega, 
 G. Zheng, W. Liang, M. Hada, M. Ehara, K. Toyota, R. Fukuda, 
 J. Hasegawa, M. Ishida, T. Nakajima, Y. Honda, O. Kitao, H. Nakai, 
 T. Vreven, K. Throssell, J. A. Montgomery, Jr., J. E. Peralta, 
 F. Ogliaro, M. J. Bearpark, J. J. Heyd, E. N. Brothers, K. N. Kudin, 
 V. N. Staroverov, T. A. Keith, R. Kobayashi, J. Normand, 
 K. Raghavachari, A. P. Rendell, J. C. Burant, S. S. Iyengar, 
 J. Tomasi, M. Cossi, J. M. Millam, M. Klene, C. Adamo, R. Cammi, 
 J. W. Ochterski, R. L. Martin, K. Morokuma, O. Farkas, 
 J. B. Foresman, and D. J. Fox, Gaussian, Inc., Wallingford CT, 2019.
 
 ************************************************
 Gaussian 16:  Fujitsu-Arm-G16RevC.01  3-Jul-2019
                   27-Sep-2023 
 ************************************************
 %mem=24GB
 %nproc=42
 Will use up to   42 processors via shared memory.
 -------------------------------------------------------------
 #P TEST b3lyp/6-311G** EmpiricalDispersion=GD3 counterpoise=2
 -------------------------------------------------------------
 1/38=1,62=2,172=1/1;
 2/12=2,17=6,18=5,40=1/2;
 1/38=1,53=2,62=2,63=1/22;
 3/5=4,6=6,7=101,11=2,25=1,30=1,74=-5,124=31/1,2,3;
 4//1;
 5/5=2,38=5/2;
 6/7=2,8=2,9=2,10=2,28=1/1;
 1/53=2,62=2,63=1/22;
 3/5=7,6=11,7=101,11=2,25=1,30=1,74=-5,82=7,124=31/1,2,3;
 4//1;
 5/5=2,38=5/2;
 6/7=2,8=2,9=2,10=2,28=1/1;
 1/53=2,62=2,63=1/22(-4);
 99/5=1,9=1/99;
 Leave Link    1 at Wed Sep 27 16:37:42 2023, MaxMem=  3221225472 cpu:               4.2 elap:               0.2
 (Enter /home/center/opt/aarch64/apps/gaussian16/c01/g16/l101.exe)
 ----------------------------
 pentacene_A1=0_A2=0_A3=45_t1
 ----------------------------
 Symbolic Z-matrix:
 Charge =  0 Multiplicity = 1 in supermolecule
 Charge =  0 Multiplicity = 1 in fragment      1.
 Charge =  0 Multiplicity = 1 in fragment      2.
 C(Fragment=1)        -0.50395   0.52395  -3.66128 
 C(Fragment=1)         0.52395  -0.50395  -3.66128 
 C(Fragment=1)        -0.98612   1.00612  -4.92359 
 C(Fragment=1)         1.00613  -0.98613  -4.92359 
 C(Fragment=1)        -0.49632   0.51632  -6.09636 
 C(Fragment=1)         0.51632  -0.49632  -6.09636 
 C(Fragment=1)        -0.98447   1.00447  -2.45332 
 C(Fragment=1)        -0.50449   0.52449  -1.21403 
 C(Fragment=1)         1.00447  -0.98447  -2.45332 
 C(Fragment=1)         0.52449  -0.50449  -1.21403 
 H(Fragment=1)        -1.75336   1.77336  -4.92326 
 H(Fragment=1)        -1.75219   1.77219  -2.45393 
 H(Fragment=1)         1.77219  -1.75219  -2.45393 
 H(Fragment=1)         1.77336  -1.75336  -4.92326 
 H(Fragment=1)         0.89056  -0.87056  -7.04253 
 H(Fragment=1)        -0.87056   0.89056  -7.04253 
 C(Fragment=1)        -0.98482   1.00482   0.01 
 C(Fragment=1)        -0.50449   0.52449   1.23403 
 C(Fragment=1)         1.00482  -0.98482   0.01 
 C(Fragment=1)         0.52449  -0.50449   1.23403 
 H(Fragment=1)        -1.75247   1.77247   0.01 
 H(Fragment=1)         1.77247  -1.75247   0.01 
 C(Fragment=1)        -0.98447   1.00447   2.47332 
 C(Fragment=1)        -0.50395   0.52395   3.68128 
 C(Fragment=1)         1.00447  -0.98447   2.47332 
 C(Fragment=1)         0.52395  -0.50395   3.68128 
 H(Fragment=1)        -1.75219   1.77219   2.47393 
 H(Fragment=1)         1.77219  -1.75219   2.47393 
 C(Fragment=1)        -0.98612   1.00612   4.94359 
 C(Fragment=1)        -0.49632   0.51632   6.11636 
 C(Fragment=1)         1.00612  -0.98612   4.94359 
 C(Fragment=1)         0.51632  -0.49632   6.11636 
 H(Fragment=1)        -1.75336   1.77336   4.94326 
 H(Fragment=1)        -0.87056   0.89056   7.06253 
 H(Fragment=1)         0.89056  -0.87056   7.06253 
 H(Fragment=1)         1.77336  -1.75336   4.94326 
 C(Fragment=2)         3.52395   5.52395  -3.66128 
 C(Fragment=2)         2.49605   4.49605  -3.66128 
 C(Fragment=2)         4.00612   6.00612  -4.92359 
 C(Fragment=2)         2.01387   4.01387  -4.92359 
 C(Fragment=2)         3.51632   5.51632  -6.09636 
 C(Fragment=2)         2.50368   4.50368  -6.09636 
 C(Fragment=2)         4.00447   6.00447  -2.45332 
 C(Fragment=2)         3.52449   5.52449  -1.21403 
 C(Fragment=2)         2.01553   4.01553  -2.45332 
 C(Fragment=2)         2.49551   4.49551  -1.21403 
 H(Fragment=2)         4.77336   6.77336  -4.92326 
 H(Fragment=2)         4.77219   6.77219  -2.45393 
 H(Fragment=2)         1.24781   3.24781  -2.45393 
 H(Fragment=2)         1.24664   3.24664  -4.92326 
 H(Fragment=2)         2.12944   4.12944  -7.04253 
 H(Fragment=2)         3.89056   5.89056  -7.04253 
 C(Fragment=2)         4.00482   6.00482   0.01 
 C(Fragment=2)         3.52449   5.52449   1.23403 
 C(Fragment=2)         2.01518   4.01518   0.01 
 C(Fragment=2)         2.49551   4.49551   1.23403 
 H(Fragment=2)         4.77247   6.77247   0.01 
 H(Fragment=2)         1.24753   3.24753   0.01 
 C(Fragment=2)         4.00447   6.00447   2.47332 
 C(Fragment=2)         3.52395   5.52395   3.68128 
 C(Fragment=2)         2.01553   4.01553   2.47332 
 C(Fragment=2)         2.49605   4.49605   3.68128 
 H(Fragment=2)         4.77219   6.77219   2.47393 
 H(Fragment=2)         1.24781   3.24781   2.47393 
 C(Fragment=2)         4.00612   6.00612   4.94359 
 C(Fragment=2)         3.51632   5.51632   6.11636 
 C(Fragment=2)         2.01388   4.01388   4.94359 
 C(Fragment=2)         2.50368   4.50368   6.11636 
 H(Fragment=2)         4.77336   6.77336   4.94326 
 H(Fragment=2)         3.89056   5.89056   7.06253 
 H(Fragment=2)         2.12944   4.12944   7.06253 
 H(Fragment=2)         1.24664   3.24664   4.94326 
 
 ITRead=  0  0  0  0  0  0  0  0  0  0  0  0  0  0  0  0  0  0  0  0
 ITRead=  0  0  0  0  0  0  0  0  0  0  0  0  0  0  0  0  0  0  0  0
 ITRead=  0  0  0  0  0  0  0  0  0  0  0  0  0  0  0  0  0  0  0  0
 ITRead=  0  0  0  0  0  0  0  0  0  0  0  0
 MicOpt= -1 -1 -1 -1 -1 -1 -1 -1 -1 -1 -1 -1 -1 -1 -1 -1 -1 -1 -1 -1
 MicOpt= -1 -1 -1 -1 -1 -1 -1 -1 -1 -1 -1 -1 -1 -1 -1 -1 -1 -1 -1 -1
 MicOpt= -1 -1 -1 -1 -1 -1 -1 -1 -1 -1 -1 -1 -1 -1 -1 -1 -1 -1 -1 -1
 MicOpt= -1 -1 -1 -1 -1 -1 -1 -1 -1 -1 -1 -1
 NAtoms=     72 NQM=       72 NQMF=       0 NMMI=      0 NMMIF=      0
                NMic=       0 NMicF=      0.
                    Isotopes and Nuclear Properties:
 (Nuclear quadrupole moments (NQMom) in fm**2, nuclear magnetic moments (NMagM)
  in nuclear magnetons)

  Atom         1           2           3           4           5           6           7           8           9          10
 IAtWgt=          12          12          12          12          12          12          12          12          12          12
 AtmWgt=  12.0000000  12.0000000  12.0000000  12.0000000  12.0000000  12.0000000  12.0000000  12.0000000  12.0000000  12.0000000
 NucSpn=           0           0           0           0           0           0           0           0           0           0
 AtZEff=   0.0000000   0.0000000   0.0000000   0.0000000   0.0000000   0.0000000   0.0000000   0.0000000   0.0000000   0.0000000
 NQMom=    0.0000000   0.0000000   0.0000000   0.0000000   0.0000000   0.0000000   0.0000000   0.0000000   0.0000000   0.0000000
 NMagM=    0.0000000   0.0000000   0.0000000   0.0000000   0.0000000   0.0000000   0.0000000   0.0000000   0.0000000   0.0000000
 AtZNuc=   6.0000000   6.0000000   6.0000000   6.0000000   6.0000000   6.0000000   6.0000000   6.0000000   6.0000000   6.0000000

  Atom        11          12          13          14          15          16          17          18          19          20
 IAtWgt=           1           1           1           1           1           1          12          12          12          12
 AtmWgt=   1.0078250   1.0078250   1.0078250   1.0078250   1.0078250   1.0078250  12.0000000  12.0000000  12.0000000  12.0000000
 NucSpn=           1           1           1           1           1           1           0           0           0           0
 AtZEff=   0.0000000   0.0000000   0.0000000   0.0000000   0.0000000   0.0000000   0.0000000   0.0000000   0.0000000   0.0000000
 NQMom=    0.0000000   0.0000000   0.0000000   0.0000000   0.0000000   0.0000000   0.0000000   0.0000000   0.0000000   0.0000000
 NMagM=    2.7928460   2.7928460   2.7928460   2.7928460   2.7928460   2.7928460   0.0000000   0.0000000   0.0000000   0.0000000
 AtZNuc=   1.0000000   1.0000000   1.0000000   1.0000000   1.0000000   1.0000000   6.0000000   6.0000000   6.0000000   6.0000000

  Atom        21          22          23          24          25          26          27          28          29          30
 IAtWgt=           1           1          12          12          12          12           1           1          12          12
 AtmWgt=   1.0078250   1.0078250  12.0000000  12.0000000  12.0000000  12.0000000   1.0078250   1.0078250  12.0000000  12.0000000
 NucSpn=           1           1           0           0           0           0           1           1           0           0
 AtZEff=   0.0000000   0.0000000   0.0000000   0.0000000   0.0000000   0.0000000   0.0000000   0.0000000   0.0000000   0.0000000
 NQMom=    0.0000000   0.0000000   0.0000000   0.0000000   0.0000000   0.0000000   0.0000000   0.0000000   0.0000000   0.0000000
 NMagM=    2.7928460   2.7928460   0.0000000   0.0000000   0.0000000   0.0000000   2.7928460   2.7928460   0.0000000   0.0000000
 AtZNuc=   1.0000000   1.0000000   6.0000000   6.0000000   6.0000000   6.0000000   1.0000000   1.0000000   6.0000000   6.0000000

  Atom        31          32          33          34          35          36          37          38          39          40
 IAtWgt=          12          12           1           1           1           1          12          12          12          12
 AtmWgt=  12.0000000  12.0000000   1.0078250   1.0078250   1.0078250   1.0078250  12.0000000  12.0000000  12.0000000  12.0000000
 NucSpn=           0           0           1           1           1           1           0           0           0           0
 AtZEff=   0.0000000   0.0000000   0.0000000   0.0000000   0.0000000   0.0000000   0.0000000   0.0000000   0.0000000   0.0000000
 NQMom=    0.0000000   0.0000000   0.0000000   0.0000000   0.0000000   0.0000000   0.0000000   0.0000000   0.0000000   0.0000000
 NMagM=    0.0000000   0.0000000   2.7928460   2.7928460   2.7928460   2.7928460   0.0000000   0.0000000   0.0000000   0.0000000
 AtZNuc=   6.0000000   6.0000000   1.0000000   1.0000000   1.0000000   1.0000000   6.0000000   6.0000000   6.0000000   6.0000000

  Atom        41          42          43          44          45          46          47          48          49          50
 IAtWgt=          12          12          12          12          12          12           1           1           1           1
 AtmWgt=  12.0000000  12.0000000  12.0000000  12.0000000  12.0000000  12.0000000   1.0078250   1.0078250   1.0078250   1.0078250
 NucSpn=           0           0           0           0           0           0           1           1           1           1
 AtZEff=   0.0000000   0.0000000   0.0000000   0.0000000   0.0000000   0.0000000   0.0000000   0.0000000   0.0000000   0.0000000
 NQMom=    0.0000000   0.0000000   0.0000000   0.0000000   0.0000000   0.0000000   0.0000000   0.0000000   0.0000000   0.0000000
 NMagM=    0.0000000   0.0000000   0.0000000   0.0000000   0.0000000   0.0000000   2.7928460   2.7928460   2.7928460   2.7928460
 AtZNuc=   6.0000000   6.0000000   6.0000000   6.0000000   6.0000000   6.0000000   1.0000000   1.0000000   1.0000000   1.0000000

  Atom        51          52          53          54          55          56          57          58          59          60
 IAtWgt=           1           1          12          12          12          12           1           1          12          12
 AtmWgt=   1.0078250   1.0078250  12.0000000  12.0000000  12.0000000  12.0000000   1.0078250   1.0078250  12.0000000  12.0000000
 NucSpn=           1           1           0           0           0           0           1           1           0           0
 AtZEff=   0.0000000   0.0000000   0.0000000   0.0000000   0.0000000   0.0000000   0.0000000   0.0000000   0.0000000   0.0000000
 NQMom=    0.0000000   0.0000000   0.0000000   0.0000000   0.0000000   0.0000000   0.0000000   0.0000000   0.0000000   0.0000000
 NMagM=    2.7928460   2.7928460   0.0000000   0.0000000   0.0000000   0.0000000   2.7928460   2.7928460   0.0000000   0.0000000
 AtZNuc=   1.0000000   1.0000000   6.0000000   6.0000000   6.0000000   6.0000000   1.0000000   1.0000000   6.0000000   6.0000000

  Atom        61          62          63          64          65          66          67          68          69          70
 IAtWgt=          12          12           1           1          12          12          12          12           1           1
 AtmWgt=  12.0000000  12.0000000   1.0078250   1.0078250  12.0000000  12.0000000  12.0000000  12.0000000   1.0078250   1.0078250
 NucSpn=           0           0           1           1           0           0           0           0           1           1
 AtZEff=   0.0000000   0.0000000   0.0000000   0.0000000   0.0000000   0.0000000   0.0000000   0.0000000   0.0000000   0.0000000
 NQMom=    0.0000000   0.0000000   0.0000000   0.0000000   0.0000000   0.0000000   0.0000000   0.0000000   0.0000000   0.0000000
 NMagM=    0.0000000   0.0000000   2.7928460   2.7928460   0.0000000   0.0000000   0.0000000   0.0000000   2.7928460   2.7928460
 AtZNuc=   6.0000000   6.0000000   1.0000000   1.0000000   6.0000000   6.0000000   6.0000000   6.0000000   1.0000000   1.0000000

  Atom        71          72
 IAtWgt=           1           1
 AtmWgt=   1.0078250   1.0078250
 NucSpn=           1           1
 AtZEff=   0.0000000   0.0000000
 NQMom=    0.0000000   0.0000000
 NMagM=    2.7928460   2.7928460
 AtZNuc=   1.0000000   1.0000000
 Leave Link  101 at Wed Sep 27 16:37:44 2023, MaxMem=  3221225472 cpu:               2.5 elap:               0.1
 (Enter /home/center/opt/aarch64/apps/gaussian16/c01/g16/l202.exe)
 Stoichiometry    C44H28
 Framework group  CS[SG(C4H4),X(C40H24)]
 Deg. of freedom   109
 Full point group                 CS      NOp   2
 Largest Abelian subgroup         CS      NOp   2
 Largest concise Abelian subgroup CS      NOp   2
                         Standard orientation:                         
 ---------------------------------------------------------------------
 Center     Atomic      Atomic             Coordinates (Angstroms)
 Number     Number       Type             X           Y           Z
 ---------------------------------------------------------------------
      1          6           0        0.019725   -2.828427    3.671276
      2          6           0       -1.433939   -2.828427    3.671276
      3          6           0        0.701627   -2.828427    4.933593
      4          6           0       -2.115840   -2.828427    4.933593
      5          6           0        0.008940   -2.828427    6.106357
      6          6           0       -1.423154   -2.828427    6.106357
      7          6           0        0.699284   -2.828427    2.463318
      8          6           0        0.020490   -2.828427    1.224029
      9          6           0       -2.113498   -2.828427    2.463317
     10          6           0       -1.434703   -2.828427    1.224029
     11          1           0        1.786655   -2.828427    4.933260
     12          1           0        1.785002   -2.828427    2.463929
     13          1           0       -3.199214   -2.828427    2.463929
     14          1           0       -3.200868   -2.828427    4.933260
     15          1           0       -1.952402   -2.828427    7.052528
     16          1           0        0.538188   -2.828427    7.052528
     17          6           0        0.699779   -2.828427    0.000000
     18          6           0        0.020490   -2.828427   -1.224029
     19          6           0       -2.113993   -2.828427    0.000000
     20          6           0       -1.434703   -2.828427   -1.224029
     21          1           0        1.785402   -2.828427    0.000000
     22          1           0       -3.199614   -2.828427    0.000000
     23          6           0        0.699284   -2.828427   -2.463318
     24          6           0        0.019725   -2.828427   -3.671276
     25          6           0       -2.113498   -2.828427   -2.463317
     26          6           0       -1.433939   -2.828427   -3.671276
     27          1           0        1.785002   -2.828427   -2.463929
     28          1           0       -3.199214   -2.828427   -2.463929
     29          6           0        0.701627   -2.828427   -4.933593
     30          6           0        0.008940   -2.828427   -6.106357
     31          6           0       -2.115840   -2.828427   -4.933593
     32          6           0       -1.423154   -2.828427   -6.106357
     33          1           0        1.786655   -2.828427   -4.933260
     34          1           0        0.538188   -2.828427   -7.052528
     35          1           0       -1.952402   -2.828427   -7.052528
     36          1           0       -3.200868   -2.828427   -4.933260
     37          6           0        0.707107    3.555259    3.671276
     38          6           0        0.707107    2.101595    3.671276
     39          6           0        0.707107    4.237160    4.933593
     40          6           0        0.707107    1.419694    4.933593
     41          6           0        0.707107    3.544474    6.106357
     42          6           0        0.707107    2.112380    6.106357
     43          6           0        0.707107    4.234818    2.463318
     44          6           0        0.707107    3.556024    1.224029
     45          6           0        0.707107    1.422036    2.463317
     46          6           0        0.707107    2.100830    1.224029
     47          1           0        0.707107    5.322189    4.933260
     48          1           0        0.707107    5.320535    2.463929
     49          1           0        0.707107    0.336320    2.463929
     50          1           0        0.707107    0.334665    4.933260
     51          1           0        0.707107    1.583132    7.052528
     52          1           0        0.707107    4.073722    7.052528
     53          6           0        0.707107    4.235313    0.000000
     54          6           0        0.707107    3.556024   -1.224029
     55          6           0        0.707107    1.421541    0.000000
     56          6           0        0.707107    2.100830   -1.224029
     57          1           0        0.707107    5.320936    0.000000
     58          1           0        0.707107    0.335920    0.000000
     59          6           0        0.707107    4.234818   -2.463318
     60          6           0        0.707107    3.555259   -3.671276
     61          6           0        0.707107    1.422036   -2.463317
     62          6           0        0.707107    2.101595   -3.671276
     63          1           0        0.707107    5.320535   -2.463929
     64          1           0        0.707107    0.336320   -2.463929
     65          6           0        0.707107    4.237160   -4.933593
     66          6           0        0.707107    3.544474   -6.106357
     67          6           0        0.707107    1.419694   -4.933593
     68          6           0        0.707107    2.112380   -6.106357
     69          1           0        0.707107    5.322189   -4.933260
     70          1           0        0.707107    4.073722   -7.052528
     71          1           0        0.707107    1.583132   -7.052528
     72          1           0        0.707107    0.334665   -4.933260
 ---------------------------------------------------------------------
 Rotational constants (GHZ):           0.0920245           0.0563744           0.0369090
 Leave Link  202 at Wed Sep 27 16:37:46 2023, MaxMem=  3221225472 cpu:               0.6 elap:               0.1
 (Enter /home/center/opt/aarch64/apps/gaussian16/c01/g16/l122.exe)
 Counterpoise: doing full-system calculation.
 Leave Link  122 at Wed Sep 27 16:37:48 2023, MaxMem=  3221225472 cpu:               0.7 elap:               0.0
 (Enter /home/center/opt/aarch64/apps/gaussian16/c01/g16/l301.exe)
 Standard basis: 6-311G(d,p) (5D, 7F)
 Ernie: Thresh=  0.10000D-02 Tol=  0.10000D-05 Strict=F.
 There are   528 symmetry adapted cartesian basis functions of A'  symmetry.
 There are   476 symmetry adapted cartesian basis functions of A"  symmetry.
 There are   504 symmetry adapted basis functions of A'  symmetry.
 There are   456 symmetry adapted basis functions of A"  symmetry.
   960 basis functions,  1632 primitive gaussians,  1004 cartesian basis functions
   146 alpha electrons      146 beta electrons
       nuclear repulsion energy      4525.0426494575 Hartrees.
 IExCor=  402 DFT=T Ex+Corr=B3LYP ExCW=0 ScaHFX=  0.200000
 ScaDFX=  0.800000  0.720000  1.000000  0.810000 ScalE2=  1.000000  1.000000
 IRadAn=      5 IRanWt=     -1 IRanGd=            0 ICorTp=0 IEmpDi=131
 NAtoms=   72 NActive=   72 NUniq=   40 SFac= 3.24D+00 NAtFMM=   60 NAOKFM=T Big=F
 Integral buffers will be    131072 words long.
 Raffenetti 2 integral format.
 Two-electron integral symmetry is turned on.
 R6Disp:  Grimme-D3 Dispersion energy=       -0.0729966234 Hartrees.
 Nuclear repulsion after empirical dispersion term =     4524.9696528341 Hartrees.
 Leave Link  301 at Wed Sep 27 16:37:51 2023, MaxMem=  3221225472 cpu:               2.1 elap:               0.1
 (Enter /home/center/opt/aarch64/apps/gaussian16/c01/g16/l302.exe)
 NPDir=0 NMtPBC=     1 NCelOv=     1 NCel=       1 NClECP=     1 NCelD=      1
         NCelK=      1 NCelE2=     1 NClLst=     1 CellRange=     0.0.
 One-electron integrals computed using PRISM.
 One-electron integral symmetry used in STVInt
 NBasis=   960 RedAO= T EigKep=  3.86D-05  NBF=   504   456
 NBsUse=   960 1.00D-06 EigRej= -1.00D+00 NBFU=   504   456
 Precomputing XC quadrature grid using
 IXCGrd= 4 IRadAn=           5 IRanWt=          -1 IRanGd=           0 AccXCQ= 0.00D+00.
 Generated NRdTot=       0 NPtTot=           0 NUsed=           0 NTot=          32
 NSgBfM=   989   989   989   989   989 MxSgAt=    72 MxSgA2=    72.
 Leave Link  302 at Wed Sep 27 16:37:55 2023, MaxMem=  3221225472 cpu:              63.9 elap:               1.9
 (Enter /home/center/opt/aarch64/apps/gaussian16/c01/g16/l303.exe)
 DipDrv:  MaxL=1.
 Leave Link  303 at Wed Sep 27 16:37:58 2023, MaxMem=  3221225472 cpu:              13.7 elap:               0.4
 (Enter /home/center/opt/aarch64/apps/gaussian16/c01/g16/l401.exe)
 ExpMin= 1.03D-01 ExpMax= 4.56D+03 ExpMxC= 6.82D+02 IAcc=3 IRadAn=         5 AccDes= 0.00D+00
 Harris functional with IExCor=  402 and IRadAn=       5 diagonalized for initial guess.
 HarFok:  IExCor=  402 AccDes= 0.00D+00 IRadAn=         5 IDoV= 1 UseB2=F ITyADJ=14
 ICtDFT=  3500011 ScaDFX=  1.000000  1.000000  1.000000  1.000000
 FoFCou: FMM=F IPFlag=           0 FMFlag=      100000 FMFlg1=        2000
         NFxFlg=           0 DoJE=T BraDBF=F KetDBF=T FulRan=T
         wScrn=  0.000000 ICntrl=       500 IOpCl=  0 I1Cent=   200000004 NGrid=           0
         NMat0=    1 NMatS0=      1 NMatT0=    0 NMatD0=    1 NMtDS0=    0 NMtDT0=    0
 Petite list used in FoFCou.
 Harris En= -1694.13676491512    
 JPrj=0 DoOrth=F DoCkMO=F.
 Initial guess orbital symmetries:
       Occupied  (A") (A') (A") (A') (A') (A") (A') (A") (A") (A')
                 (A") (A') (A") (A') (A") (A') (A") (A') (A') (A")
                 (A") (A') (A") (A') (A') (A') (A') (A') (A") (A")
                 (A') (A') (A") (A') (A") (A') (A") (A') (A") (A')
                 (A') (A") (A') (A") (A') (A') (A") (A") (A') (A')
                 (A") (A") (A') (A') (A') (A') (A") (A") (A') (A')
                 (A") (A") (A") (A") (A') (A') (A') (A') (A") (A")
                 (A") (A") (A') (A') (A") (A") (A') (A') (A') (A')
                 (A') (A') (A") (A") (A") (A") (A") (A") (A') (A')
                 (A') (A') (A") (A") (A') (A') (A') (A') (A") (A")
                 (A') (A') (A") (A") (A") (A") (A') (A') (A') (A')
                 (A") (A") (A') (A') (A") (A") (A') (A') (A") (A")
                 (A") (A") (A') (A') (A') (A') (A") (A") (A') (A')
                 (A") (A") (A') (A') (A") (A") (A') (A') (A') (A')
                 (A") (A") (A") (A") (A') (A')
       Virtual   (A') (A') (A") (A") (A") (A") (A') (A') (A') (A')
                 (A") (A") (A') (A') (A") (A") (A') (A") (A') (A')
                 (A') (A') (A") (A') (A') (A") (A") (A') (A") (A')
                 (A") (A") (A') (A") (A') (A') (A") (A") (A") (A')
                 (A') (A") (A') (A") (A') (A') (A") (A') (A') (A')
                 (A') (A") (A') (A") (A') (A') (A") (A') (A") (A')
                 (A") (A") (A") (A") (A') (A') (A") (A") (A') (A")
                 (A') (A") (A') (A') (A") (A') (A") (A") (A') (A")
                 (A') (A') (A') (A") (A') (A') (A') (A") (A") (A')
                 (A") (A") (A') (A') (A") (A') (A") (A') (A") (A")
                 (A") (A') (A") (A') (A") (A') (A") (A') (A') (A')
                 (A') (A') (A") (A') (A') (A') (A") (A") (A') (A")
                 (A') (A") (A') (A") (A") (A") (A') (A') (A") (A")
                 (A') (A") (A") (A') (A") (A") (A') (A') (A") (A')
                 (A") (A') (A') (A') (A') (A') (A") (A') (A') (A")
                 (A') (A") (A') (A') (A") (A") (A') (A") (A') (A")
                 (A') (A") (A') (A") (A") (A') (A") (A') (A') (A")
                 (A") (A') (A") (A') (A") (A') (A') (A") (A') (A")
                 (A') (A") (A") (A') (A') (A") (A') (A') (A') (A')
                 (A") (A') (A") (A") (A') (A") (A') (A') (A") (A")
                 (A") (A') (A') (A") (A') (A') (A") (A') (A') (A")
                 (A") (A') (A") (A') (A") (A') (A") (A") (A") (A')
                 (A') (A") (A") (A') (A") (A") (A') (A') (A') (A")
                 (A') (A') (A') (A") (A") (A') (A') (A") (A") (A')
                 (A") (A') (A") (A') (A") (A') (A') (A") (A') (A')
                 (A") (A") (A") (A") (A') (A') (A') (A") (A") (A')
                 (A') (A') (A') (A") (A") (A") (A") (A') (A') (A")
                 (A") (A') (A") (A") (A') (A") (A') (A') (A") (A')
                 (A") (A") (A') (A') (A') (A') (A") (A') (A") (A")
                 (A') (A') (A') (A") (A") (A') (A") (A") (A") (A")
                 (A") (A') (A') (A") (A') (A') (A') (A') (A") (A')
                 (A") (A") (A') (A') (A") (A") (A") (A') (A') (A")
                 (A') (A') (A") (A') (A') (A') (A") (A") (A") (A')
                 (A") (A") (A') (A") (A') (A') (A") (A') (A') (A")
                 (A") (A') (A') (A") (A") (A') (A") (A') (A") (A')
                 (A') (A') (A") (A") (A') (A') (A') (A") (A') (A")
                 (A') (A') (A') (A') (A") (A") (A") (A") (A") (A")
                 (A") (A") (A') (A") (A') (A") (A') (A') (A') (A')
                 (A") (A') (A") (A') (A') (A') (A') (A") (A") (A')
                 (A") (A') (A') (A") (A') (A') (A") (A") (A") (A")
                 (A') (A') (A") (A') (A") (A') (A') (A") (A") (A')
                 (A') (A') (A") (A') (A") (A') (A") (A') (A") (A')
                 (A') (A') (A') (A") (A') (A") (A') (A") (A") (A')
                 (A") (A") (A") (A') (A") (A') (A") (A') (A") (A')
                 (A") (A") (A') (A") (A') (A") (A') (A") (A') (A")
                 (A') (A') (A') (A") (A') (A') (A") (A') (A") (A")
                 (A") (A') (A") (A') (A') (A") (A") (A') (A") (A")
                 (A') (A') (A") (A') (A") (A') (A") (A") (A') (A')
                 (A") (A') (A') (A") (A') (A') (A") (A") (A") (A')
                 (A") (A') (A") (A") (A") (A") (A") (A") (A') (A')
                 (A') (A") (A') (A") (A') (A') (A') (A') (A') (A")
                 (A") (A') (A') (A') (A") (A") (A") (A") (A') (A')
                 (A") (A') (A") (A') (A") (A") (A') (A') (A") (A')
                 (A") (A') (A') (A') (A") (A") (A') (A") (A") (A')
                 (A") (A") (A') (A') (A') (A') (A") (A") (A") (A")
                 (A') (A") (A') (A") (A") (A') (A") (A') (A') (A')
                 (A") (A') (A") (A') (A') (A") (A") (A') (A') (A")
                 (A') (A") (A") (A") (A') (A') (A") (A') (A") (A')
                 (A') (A') (A') (A') (A") (A") (A") (A') (A") (A')
                 (A') (A') (A') (A") (A') (A') (A') (A") (A") (A')
                 (A") (A") (A") (A') (A') (A") (A") (A') (A") (A')
                 (A") (A') (A") (A') (A") (A') (A') (A') (A") (A")
                 (A") (A') (A") (A") (A') (A') (A") (A') (A") (A')
                 (A') (A') (A') (A') (A") (A') (A") (A') (A") (A')
                 (A") (A") (A") (A") (A') (A") (A") (A') (A") (A')
                 (A') (A') (A") (A') (A') (A') (A") (A') (A") (A')
                 (A') (A") (A") (A') (A") (A") (A') (A') (A') (A")
                 (A') (A") (A') (A") (A") (A') (A") (A") (A') (A')
                 (A") (A') (A") (A') (A') (A") (A') (A") (A") (A")
                 (A') (A') (A") (A') (A') (A') (A") (A") (A") (A')
                 (A') (A') (A") (A") (A') (A") (A') (A") (A') (A")
                 (A") (A') (A") (A") (A') (A') (A') (A') (A") (A")
                 (A') (A') (A") (A") (A') (A') (A") (A') (A') (A")
                 (A') (A") (A') (A") (A") (A') (A") (A') (A') (A')
                 (A") (A") (A') (A') (A") (A") (A') (A') (A') (A')
                 (A") (A') (A") (A') (A") (A") (A') (A') (A") (A")
                 (A") (A") (A') (A') (A") (A") (A') (A") (A') (A")
                 (A') (A') (A") (A") (A') (A') (A') (A') (A") (A")
                 (A") (A") (A') (A') (A") (A") (A') (A') (A') (A')
                 (A") (A") (A") (A") (A') (A') (A') (A') (A") (A")
                 (A') (A') (A") (A") (A') (A') (A") (A') (A") (A')
                 (A') (A") (A') (A")
 The electronic state of the initial guess is 1-A'.
 Leave Link  401 at Wed Sep 27 16:38:03 2023, MaxMem=  3221225472 cpu:             102.5 elap:               2.7
 (Enter /home/center/opt/aarch64/apps/gaussian16/c01/g16/l502.exe)
 Integral symmetry usage will be decided dynamically.
 Closed shell SCF:
 Using DIIS extrapolation, IDIIS=  1040.
 NGot=  3221225472 LenX=  3219153746 LenY=  3218144726
 Requested convergence on RMS density matrix=1.00D-08 within 128 cycles.
 Requested convergence on MAX density matrix=1.00D-06.
 Requested convergence on             energy=1.00D-06.
 No special actions if energy rises.
 Fock matrices will be formed incrementally for  20 cycles.
 Integral accuracy reduced to 1.0D-05 until final iterations.

 Cycle   1  Pass 0  IDiag  1:
 FoFJK:  IHMeth= 1 ICntrl=       0 DoSepK=F KAlg= 0 I1Cent=           0 FoldK=F
 IRaf= 530000000 NMat=       1 IRICut=       1 DoRegI=T DoRafI=F ISym2E= 1 IDoP0=0 IntGTp=1.
 FoFCou: FMM=F IPFlag=           0 FMFlag=      100000 FMFlg1=        2000
         NFxFlg=           0 DoJE=F BraDBF=F KetDBF=F FulRan=T
         wScrn=  0.000000 ICntrl=         0 IOpCl=  0 I1Cent=           0 NGrid=           0
         NMat0=    1 NMatS0=      1 NMatT0=    0 NMatD0=    1 NMtDS0=    0 NMtDT0=    0
 Petite list used in FoFCou.
 E= -1693.16047569572    
 DIIS: error= 4.69D-02 at cycle   1 NSaved=   1.
 NSaved= 1 IEnMin= 1 EnMin= -1693.16047569572     IErMin= 1 ErrMin= 4.69D-02
 ErrMax= 4.69D-02  0.00D+00 EMaxC= 1.00D-01 BMatC= 9.04D-01 BMatP= 9.04D-01
 IDIUse=3 WtCom= 5.31D-01 WtEn= 4.69D-01
 Coeff-Com:  0.100D+01
 Coeff-En:   0.100D+01
 Coeff:      0.100D+01
 Gap=     0.067 Goal=   None    Shift=    0.000
 GapD=    0.067 DampG=0.500 DampE=0.500 DampFc=0.2500 IDamp=-1.
 Damping current iteration by 2.50D-01
 RMSDP=1.75D-03 MaxDP=8.41D-02              OVMax= 1.58D-01

 Cycle   2  Pass 0  IDiag  1:
 RMSU=  4.22D-04    CP:  9.82D-01
 E= -1693.47212832124     Delta-E=       -0.311652625516 Rises=F Damp=T
 DIIS: error= 2.72D-02 at cycle   2 NSaved=   2.
 NSaved= 2 IEnMin= 2 EnMin= -1693.47212832124     IErMin= 2 ErrMin= 2.72D-02
 ErrMax= 2.72D-02  0.00D+00 EMaxC= 1.00D-01 BMatC= 2.99D-01 BMatP= 9.04D-01
 IDIUse=3 WtCom= 7.28D-01 WtEn= 2.72D-01
 Coeff-Com: -0.120D+01 0.220D+01
 Coeff-En:   0.000D+00 0.100D+01
 Coeff:     -0.876D+00 0.188D+01
 Gap=     0.068 Goal=   None    Shift=    0.000
 RMSDP=7.12D-04 MaxDP=3.33D-02 DE=-3.12D-01 OVMax= 7.92D-02

 Cycle   3  Pass 0  IDiag  1:
 RMSU=  4.38D-04    CP:  9.55D-01  2.27D+00
 E= -1694.04186333421     Delta-E=       -0.569735012969 Rises=F Damp=F
 DIIS: error= 4.95D-03 at cycle   3 NSaved=   3.
 NSaved= 3 IEnMin= 3 EnMin= -1694.04186333421     IErMin= 3 ErrMin= 4.95D-03
 ErrMax= 4.95D-03  0.00D+00 EMaxC= 1.00D-01 BMatC= 1.16D-02 BMatP= 2.99D-01
 IDIUse=3 WtCom= 9.51D-01 WtEn= 4.95D-02
 Coeff-Com: -0.230D+00 0.487D+00 0.743D+00
 Coeff-En:   0.000D+00 0.000D+00 0.100D+01
 Coeff:     -0.219D+00 0.463D+00 0.756D+00
 Gap=     0.071 Goal=   None    Shift=    0.000
 RMSDP=2.28D-04 MaxDP=1.20D-02 DE=-5.70D-01 OVMax= 7.41D-02

 Cycle   4  Pass 0  IDiag  1:
 RMSU=  1.97D-04    CP:  9.57D-01  2.18D+00  7.57D-01
 E= -1694.03827260664     Delta-E=        0.003590727569 Rises=F Damp=F
 DIIS: error= 7.28D-03 at cycle   4 NSaved=   4.
 NSaved= 4 IEnMin= 3 EnMin= -1694.04186333421     IErMin= 3 ErrMin= 4.95D-03
 ErrMax= 7.28D-03  0.00D+00 EMaxC= 1.00D-01 BMatC= 1.30D-02 BMatP= 1.16D-02
 IDIUse=3 WtCom= 1.05D-01 WtEn= 8.95D-01
 Coeff-Com: -0.281D-01 0.936D-01 0.525D+00 0.409D+00
 Coeff-En:   0.000D+00 0.000D+00 0.555D+00 0.445D+00
 Coeff:     -0.294D-02 0.982D-02 0.552D+00 0.441D+00
 Gap=     0.068 Goal=   None    Shift=    0.000
 RMSDP=1.43D-04 MaxDP=7.90D-03 DE= 3.59D-03 OVMax= 6.48D-02

 Cycle   5  Pass 0  IDiag  1:
 RMSU=  8.14D-05    CP:  9.57D-01  2.17D+00  8.33D-01  4.31D-01
 E= -1694.05253311652     Delta-E=       -0.014260509877 Rises=F Damp=F
 DIIS: error= 2.46D-03 at cycle   5 NSaved=   5.
 NSaved= 5 IEnMin= 5 EnMin= -1694.05253311652     IErMin= 5 ErrMin= 2.46D-03
 ErrMax= 2.46D-03  0.00D+00 EMaxC= 1.00D-01 BMatC= 1.17D-03 BMatP= 1.16D-02
 IDIUse=3 WtCom= 9.75D-01 WtEn= 2.46D-02
 Coeff-Com: -0.169D-01 0.355D-01 0.239D+00 0.255D+00 0.487D+00
 Coeff-En:   0.000D+00 0.000D+00 0.000D+00 0.606D-01 0.939D+00
 Coeff:     -0.165D-01 0.346D-01 0.234D+00 0.251D+00 0.498D+00
 Gap=     0.069 Goal=   None    Shift=    0.000
 RMSDP=4.88D-05 MaxDP=2.97D-03 DE=-1.43D-02 OVMax= 2.74D-02

 Cycle   6  Pass 0  IDiag  1:
 RMSU=  2.33D-05    CP:  9.56D-01  2.19D+00  8.35D-01  5.30D-01  5.49D-01
 E= -1694.05366682376     Delta-E=       -0.001133707244 Rises=F Damp=F
 DIIS: error= 1.33D-03 at cycle   6 NSaved=   6.
 NSaved= 6 IEnMin= 6 EnMin= -1694.05366682376     IErMin= 6 ErrMin= 1.33D-03
 ErrMax= 1.33D-03  0.00D+00 EMaxC= 1.00D-01 BMatC= 2.32D-04 BMatP= 1.17D-03
 IDIUse=3 WtCom= 9.87D-01 WtEn= 1.33D-02
 Coeff-Com: -0.723D-02 0.105D-01 0.958D-01 0.123D+00 0.357D+00 0.422D+00
 Coeff-En:   0.000D+00 0.000D+00 0.000D+00 0.000D+00 0.163D+00 0.837D+00
 Coeff:     -0.713D-02 0.104D-01 0.945D-01 0.121D+00 0.354D+00 0.427D+00
 Gap=     0.068 Goal=   None    Shift=    0.000
 RMSDP=1.91D-05 MaxDP=1.43D-03 DE=-1.13D-03 OVMax= 1.23D-02

 Cycle   7  Pass 0  IDiag  1:
 RMSU=  8.09D-06    CP:  9.56D-01  2.19D+00  8.38D-01  5.09D-01  6.21D-01
                    CP:  3.26D-01
 E= -1694.05392159220     Delta-E=       -0.000254768442 Rises=F Damp=F
 DIIS: error= 3.27D-04 at cycle   7 NSaved=   7.
 NSaved= 7 IEnMin= 7 EnMin= -1694.05392159220     IErMin= 7 ErrMin= 3.27D-04
 ErrMax= 3.27D-04  0.00D+00 EMaxC= 1.00D-01 BMatC= 1.88D-05 BMatP= 2.32D-04
 IDIUse=3 WtCom= 9.97D-01 WtEn= 3.27D-03
 Coeff-Com: -0.318D-02 0.393D-02 0.513D-01 0.674D-01 0.212D+00 0.294D+00
 Coeff-Com:  0.375D+00
 Coeff-En:   0.000D+00 0.000D+00 0.000D+00 0.000D+00 0.000D+00 0.340D-01
 Coeff-En:   0.966D+00
 Coeff:     -0.317D-02 0.392D-02 0.512D-01 0.672D-01 0.211D+00 0.293D+00
 Coeff:      0.377D+00
 Gap=     0.069 Goal=   None    Shift=    0.000
 RMSDP=5.34D-06 MaxDP=3.29D-04 DE=-2.55D-04 OVMax= 2.82D-03

 Initial convergence to 1.0D-05 achieved.  Increase integral accuracy.
 Cycle   8  Pass 1  IDiag  1:
 E= -1694.05358069451     Delta-E=        0.000340897695 Rises=F Damp=F
 DIIS: error= 1.26D-03 at cycle   1 NSaved=   1.
 NSaved= 1 IEnMin= 1 EnMin= -1694.05358069451     IErMin= 1 ErrMin= 1.26D-03
 ErrMax= 1.26D-03  0.00D+00 EMaxC= 1.00D-01 BMatC= 5.29D-05 BMatP= 5.29D-05
 IDIUse=3 WtCom= 9.87D-01 WtEn= 1.26D-02
 Coeff-Com:  0.100D+01
 Coeff-En:   0.100D+01
 Coeff:      0.100D+01
 Gap=     0.069 Goal=   None    Shift=    0.000
 RMSDP=5.34D-06 MaxDP=3.29D-04 DE= 3.41D-04 OVMax= 2.61D-03

 Cycle   9  Pass 1  IDiag  1:
 RMSU=  3.98D-04    CP:  9.97D-01
 E= -1694.05363510757     Delta-E=       -0.000054413065 Rises=F Damp=F
 DIIS: error= 1.42D-04 at cycle   2 NSaved=   2.
 NSaved= 2 IEnMin= 2 EnMin= -1694.05363510757     IErMin= 2 ErrMin= 1.42D-04
 ErrMax= 1.42D-04  0.00D+00 EMaxC= 1.00D-01 BMatC= 2.55D-06 BMatP= 5.29D-05
 IDIUse=3 WtCom= 9.99D-01 WtEn= 1.42D-03
 Coeff-Com:  0.572D-01 0.943D+00
 Coeff-En:   0.000D+00 0.100D+01
 Coeff:      0.571D-01 0.943D+00
 Gap=     0.069 Goal=   None    Shift=    0.000
 RMSDP=7.07D-06 MaxDP=4.34D-04 DE=-5.44D-05 OVMax= 3.71D-03

 Cycle  10  Pass 1  IDiag  1:
 RMSU=  5.67D-06    CP:  9.97D-01  1.01D+00
 E= -1694.05362218815     Delta-E=        0.000012919419 Rises=F Damp=F
 DIIS: error= 3.76D-04 at cycle   3 NSaved=   3.
 NSaved= 3 IEnMin= 2 EnMin= -1694.05363510757     IErMin= 2 ErrMin= 1.42D-04
 ErrMax= 3.76D-04  0.00D+00 EMaxC= 1.00D-01 BMatC= 1.29D-05 BMatP= 2.55D-06
 IDIUse=3 WtCom= 3.40D-01 WtEn= 6.60D-01
 Coeff-Com: -0.349D-02 0.696D+00 0.307D+00
 Coeff-En:   0.000D+00 0.778D+00 0.222D+00
 Coeff:     -0.119D-02 0.750D+00 0.251D+00
 Gap=     0.069 Goal=   None    Shift=    0.000
 RMSDP=3.35D-06 MaxDP=2.63D-04 DE= 1.29D-05 OVMax= 2.45D-03

 Cycle  11  Pass 1  IDiag  1:
 RMSU=  9.52D-07    CP:  9.97D-01  1.01D+00  4.35D-01
 E= -1694.05363757832     Delta-E=       -0.000015390165 Rises=F Damp=F
 DIIS: error= 3.98D-05 at cycle   4 NSaved=   4.
 NSaved= 4 IEnMin= 4 EnMin= -1694.05363757832     IErMin= 4 ErrMin= 3.98D-05
 ErrMax= 3.98D-05  0.00D+00 EMaxC= 1.00D-01 BMatC= 4.88D-07 BMatP= 2.55D-06
 IDIUse=1 WtCom= 1.00D+00 WtEn= 0.00D+00
 Coeff-Com: -0.401D-02 0.452D+00 0.129D+00 0.422D+00
 Coeff:     -0.401D-02 0.452D+00 0.129D+00 0.422D+00
 Gap=     0.069 Goal=   None    Shift=    0.000
 RMSDP=7.08D-07 MaxDP=3.57D-05 DE=-1.54D-05 OVMax= 2.29D-04

 Cycle  12  Pass 1  IDiag  1:
 RMSU=  3.96D-07    CP:  9.97D-01  1.01D+00  3.34D-01  8.74D-01
 E= -1694.05363810039     Delta-E=       -0.000000522072 Rises=F Damp=F
 DIIS: error= 5.45D-06 at cycle   5 NSaved=   5.
 NSaved= 5 IEnMin= 5 EnMin= -1694.05363810039     IErMin= 5 ErrMin= 5.45D-06
 ErrMax= 5.45D-06  0.00D+00 EMaxC= 1.00D-01 BMatC= 4.79D-09 BMatP= 4.88D-07
 IDIUse=1 WtCom= 1.00D+00 WtEn= 0.00D+00
 Coeff-Com: -0.243D-02 0.268D+00 0.740D-01 0.268D+00 0.392D+00
 Coeff:     -0.243D-02 0.268D+00 0.740D-01 0.268D+00 0.392D+00
 Gap=     0.069 Goal=   None    Shift=    0.000
 RMSDP=1.04D-07 MaxDP=5.42D-06 DE=-5.22D-07 OVMax= 4.06D-05

 Cycle  13  Pass 1  IDiag  1:
 RMSU=  9.25D-08    CP:  9.97D-01  1.01D+00  3.35D-01  8.89D-01  8.89D-01
 E= -1694.05363810620     Delta-E=       -0.000000005813 Rises=F Damp=F
 DIIS: error= 1.73D-06 at cycle   6 NSaved=   6.
 NSaved= 6 IEnMin= 6 EnMin= -1694.05363810620     IErMin= 6 ErrMin= 1.73D-06
 ErrMax= 1.73D-06  0.00D+00 EMaxC= 1.00D-01 BMatC= 6.30D-10 BMatP= 4.79D-09
 IDIUse=1 WtCom= 1.00D+00 WtEn= 0.00D+00
 Coeff-Com: -0.904D-03 0.970D-01 0.260D-01 0.103D+00 0.265D+00 0.510D+00
 Coeff:     -0.904D-03 0.970D-01 0.260D-01 0.103D+00 0.265D+00 0.510D+00
 Gap=     0.069 Goal=   None    Shift=    0.000
 RMSDP=2.90D-08 MaxDP=2.24D-06 DE=-5.81D-09 OVMax= 1.84D-05

 Cycle  14  Pass 1  IDiag  1:
 RMSU=  2.20D-08    CP:  9.97D-01  1.01D+00  3.35D-01  8.89D-01  9.10D-01
                    CP:  8.32D-01
 E= -1694.05363810681     Delta-E=       -0.000000000608 Rises=F Damp=F
 DIIS: error= 9.58D-07 at cycle   7 NSaved=   7.
 NSaved= 7 IEnMin= 7 EnMin= -1694.05363810681     IErMin= 7 ErrMin= 9.58D-07
 ErrMax= 9.58D-07  0.00D+00 EMaxC= 1.00D-01 BMatC= 6.81D-11 BMatP= 6.30D-10
 IDIUse=1 WtCom= 1.00D+00 WtEn= 0.00D+00
 Coeff-Com: -0.388D-03 0.412D-01 0.107D-01 0.452D-01 0.140D+00 0.316D+00
 Coeff-Com:  0.447D+00
 Coeff:     -0.388D-03 0.412D-01 0.107D-01 0.452D-01 0.140D+00 0.316D+00
 Coeff:      0.447D+00
 Gap=     0.069 Goal=   None    Shift=    0.000
 RMSDP=1.40D-08 MaxDP=1.08D-06 DE=-6.08D-10 OVMax= 1.09D-05

 Cycle  15  Pass 1  IDiag  1:
 RMSU=  9.58D-09    CP:  9.97D-01  1.01D+00  3.35D-01  8.89D-01  9.11D-01
                    CP:  8.62D-01  5.65D-01
 E= -1694.05363810687     Delta-E=       -0.000000000059 Rises=F Damp=F
 DIIS: error= 5.37D-07 at cycle   8 NSaved=   8.
 NSaved= 8 IEnMin= 8 EnMin= -1694.05363810687     IErMin= 8 ErrMin= 5.37D-07
 ErrMax= 5.37D-07  0.00D+00 EMaxC= 1.00D-01 BMatC= 2.28D-11 BMatP= 6.81D-11
 IDIUse=1 WtCom= 1.00D+00 WtEn= 0.00D+00
 Coeff-Com:  0.573D-05-0.108D-02-0.671D-03 0.621D-03 0.238D-01 0.723D-01
 Coeff-Com:  0.369D+00 0.536D+00
 Coeff:      0.573D-05-0.108D-02-0.671D-03 0.621D-03 0.238D-01 0.723D-01
 Coeff:      0.369D+00 0.536D+00
 Gap=     0.069 Goal=   None    Shift=    0.000
 RMSDP=5.82D-09 MaxDP=4.03D-07 DE=-5.91D-11 OVMax= 3.74D-06

 SCF Done:  E(RB3LYP) =  -1694.05363811     A.U. after   15 cycles
            NFock= 15  Conv=0.58D-08     -V/T= 2.0044
 KE= 1.686676640985D+03 PE=-1.298035215202D+04 EE= 5.074652220096D+03
 Leave Link  502 at Wed Sep 27 16:39:45 2023, MaxMem=  3221225472 cpu:            3560.1 elap:             100.0
 (Enter /home/center/opt/aarch64/apps/gaussian16/c01/g16/l601.exe)
 Copying SCF densities to generalized density rwf, IOpCl= 0 IROHF=0.

 **********************************************************************

            Population analysis using the SCF Density.

 **********************************************************************

 Orbital symmetries:
       Occupied  (A") (A') (A') (A") (A") (A') (A") (A') (A') (A')
                 (A") (A') (A") (A') (A") (A') (A") (A') (A") (A')
                 (A") (A') (A") (A') (A") (A') (A') (A") (A") (A')
                 (A") (A') (A') (A") (A') (A') (A") (A') (A") (A')
                 (A") (A') (A") (A') (A') (A') (A") (A") (A') (A')
                 (A") (A") (A') (A') (A') (A") (A') (A") (A') (A')
                 (A") (A") (A") (A") (A') (A') (A') (A') (A") (A")
                 (A") (A") (A') (A") (A') (A') (A") (A') (A') (A')
                 (A') (A") (A") (A') (A") (A") (A') (A") (A') (A")
                 (A') (A') (A') (A") (A") (A') (A") (A") (A') (A')
                 (A') (A") (A') (A') (A') (A') (A") (A") (A') (A")
                 (A') (A') (A") (A") (A") (A") (A") (A") (A') (A')
                 (A') (A') (A') (A') (A") (A") (A') (A") (A") (A")
                 (A') (A") (A') (A') (A") (A") (A') (A') (A') (A')
                 (A") (A") (A") (A") (A') (A')
       Virtual   (A') (A') (A") (A") (A") (A") (A') (A') (A') (A")
                 (A') (A') (A") (A') (A") (A') (A') (A') (A") (A")
                 (A') (A') (A") (A") (A') (A") (A') (A') (A") (A")
                 (A") (A') (A') (A") (A') (A") (A") (A') (A") (A')
                 (A') (A') (A") (A') (A") (A') (A") (A") (A') (A')
                 (A") (A') (A') (A') (A') (A') (A') (A") (A') (A")
                 (A") (A") (A") (A") (A') (A') (A") (A") (A") (A')
                 (A') (A') (A") (A') (A") (A') (A") (A') (A") (A")
                 (A') (A') (A') (A') (A") (A') (A') (A") (A') (A")
                 (A") (A') (A') (A') (A") (A") (A') (A") (A") (A")
                 (A') (A") (A') (A') (A') (A") (A') (A") (A') (A")
                 (A") (A') (A') (A") (A') (A") (A") (A") (A') (A')
                 (A') (A") (A') (A') (A') (A") (A') (A') (A") (A')
                 (A') (A") (A") (A') (A') (A") (A') (A') (A") (A')
                 (A') (A") (A') (A") (A") (A') (A") (A") (A') (A")
                 (A') (A") (A") (A') (A") (A') (A') (A") (A') (A")
                 (A') (A") (A') (A") (A') (A') (A") (A") (A") (A')
                 (A") (A') (A") (A') (A') (A') (A') (A') (A") (A")
                 (A") (A') (A') (A') (A") (A") (A') (A") (A") (A')
                 (A") (A') (A") (A") (A') (A") (A') (A') (A') (A")
                 (A') (A") (A') (A") (A') (A") (A') (A') (A") (A')
                 (A") (A') (A') (A") (A") (A') (A") (A') (A") (A")
                 (A') (A") (A') (A") (A") (A') (A') (A') (A") (A')
                 (A') (A") (A") (A') (A") (A') (A") (A') (A') (A")
                 (A") (A') (A') (A") (A') (A") (A') (A") (A') (A")
                 (A") (A') (A') (A") (A') (A") (A") (A') (A") (A")
                 (A') (A') (A") (A') (A') (A') (A") (A') (A") (A')
                 (A") (A') (A") (A") (A") (A') (A') (A") (A") (A')
                 (A") (A') (A') (A') (A") (A") (A') (A") (A') (A")
                 (A') (A") (A') (A') (A") (A") (A') (A') (A") (A')
                 (A") (A") (A") (A") (A') (A") (A') (A') (A') (A')
                 (A') (A") (A') (A') (A") (A") (A") (A') (A") (A")
                 (A') (A") (A') (A') (A') (A") (A') (A") (A") (A')
                 (A") (A") (A') (A") (A') (A") (A') (A") (A') (A')
                 (A") (A') (A') (A') (A") (A") (A') (A') (A") (A')
                 (A") (A') (A") (A") (A') (A') (A') (A') (A') (A")
                 (A') (A") (A') (A") (A') (A") (A") (A") (A") (A')
                 (A") (A") (A") (A') (A") (A') (A") (A') (A") (A')
                 (A') (A') (A") (A") (A') (A') (A') (A") (A') (A')
                 (A') (A') (A") (A") (A') (A') (A") (A") (A") (A')
                 (A') (A") (A") (A') (A") (A') (A') (A') (A") (A")
                 (A') (A') (A") (A") (A') (A') (A") (A') (A") (A')
                 (A') (A') (A") (A') (A") (A') (A') (A") (A") (A')
                 (A") (A") (A") (A') (A") (A') (A') (A") (A') (A")
                 (A") (A') (A") (A') (A") (A") (A') (A') (A") (A")
                 (A') (A') (A") (A') (A") (A') (A') (A") (A") (A')
                 (A") (A") (A') (A') (A') (A") (A") (A') (A') (A')
                 (A") (A") (A') (A') (A") (A") (A") (A") (A') (A')
                 (A') (A") (A") (A') (A') (A') (A") (A") (A') (A")
                 (A") (A") (A') (A") (A") (A") (A") (A") (A') (A')
                 (A") (A') (A') (A') (A") (A') (A') (A') (A") (A")
                 (A') (A') (A') (A") (A') (A") (A') (A") (A') (A")
                 (A") (A") (A') (A") (A') (A') (A") (A') (A") (A')
                 (A") (A') (A") (A") (A') (A") (A') (A") (A') (A')
                 (A") (A") (A') (A') (A') (A") (A") (A') (A") (A")
                 (A') (A") (A") (A') (A") (A') (A') (A") (A') (A')
                 (A") (A') (A') (A") (A") (A') (A') (A") (A") (A")
                 (A') (A') (A') (A') (A") (A') (A') (A') (A") (A')
                 (A") (A") (A") (A') (A') (A") (A') (A") (A") (A')
                 (A") (A') (A") (A") (A') (A") (A') (A') (A") (A')
                 (A") (A') (A') (A") (A') (A") (A') (A") (A') (A')
                 (A') (A") (A') (A") (A') (A') (A") (A') (A') (A")
                 (A") (A") (A') (A') (A') (A") (A") (A") (A') (A")
                 (A") (A') (A') (A") (A') (A') (A') (A') (A") (A')
                 (A") (A") (A") (A') (A") (A") (A') (A") (A') (A')
                 (A") (A') (A") (A') (A') (A') (A") (A') (A') (A")
                 (A") (A") (A') (A') (A") (A") (A') (A') (A') (A")
                 (A') (A") (A") (A') (A") (A') (A") (A") (A') (A')
                 (A') (A') (A") (A") (A') (A") (A') (A") (A") (A")
                 (A') (A') (A") (A') (A') (A') (A") (A") (A') (A")
                 (A') (A') (A") (A") (A') (A") (A') (A") (A") (A')
                 (A') (A") (A") (A") (A') (A') (A') (A') (A") (A")
                 (A') (A') (A") (A') (A") (A') (A') (A') (A") (A")
                 (A") (A') (A') (A") (A") (A') (A') (A") (A') (A")
                 (A') (A") (A') (A") (A') (A') (A") (A') (A') (A")
                 (A') (A') (A") (A') (A") (A") (A') (A') (A") (A")
                 (A") (A') (A") (A") (A') (A") (A') (A") (A') (A")
                 (A') (A') (A") (A") (A') (A') (A') (A') (A") (A")
                 (A") (A") (A') (A') (A") (A') (A") (A') (A') (A')
                 (A") (A") (A") (A") (A') (A') (A') (A") (A') (A")
                 (A') (A') (A") (A') (A") (A") (A') (A') (A") (A')
                 (A') (A") (A') (A")
 The electronic state is 1-A'.
 Alpha  occ. eigenvalues --  -10.19494 -10.19494 -10.19421 -10.19420 -10.19404
 Alpha  occ. eigenvalues --  -10.19404 -10.19311 -10.19311 -10.18503 -10.18475
 Alpha  occ. eigenvalues --  -10.18444 -10.18444 -10.18440 -10.18440 -10.18397
 Alpha  occ. eigenvalues --  -10.18397 -10.18329 -10.18329 -10.18310 -10.18310
 Alpha  occ. eigenvalues --  -10.18230 -10.18230 -10.18224 -10.18224 -10.18177
 Alpha  occ. eigenvalues --  -10.18177 -10.18154 -10.18153 -10.18081 -10.18081
 Alpha  occ. eigenvalues --  -10.17280 -10.17280 -10.17242 -10.17230 -10.17230
 Alpha  occ. eigenvalues --  -10.17212 -10.17212 -10.17162 -10.17152 -10.17152
 Alpha  occ. eigenvalues --  -10.17128 -10.17128 -10.17060 -10.17060  -0.89881
 Alpha  occ. eigenvalues --   -0.88634  -0.88390  -0.87180  -0.86067  -0.84873
 Alpha  occ. eigenvalues --   -0.82929  -0.81743  -0.80346  -0.79097  -0.79033
 Alpha  occ. eigenvalues --   -0.78825  -0.77852  -0.77612  -0.76496  -0.75298
 Alpha  occ. eigenvalues --   -0.74770  -0.73581  -0.73404  -0.72212  -0.69704
 Alpha  occ. eigenvalues --   -0.68500  -0.67853  -0.66666  -0.63238  -0.62866
 Alpha  occ. eigenvalues --   -0.62043  -0.61702  -0.61610  -0.60456  -0.60366
 Alpha  occ. eigenvalues --   -0.59791  -0.59237  -0.58597  -0.58183  -0.57014
 Alpha  occ. eigenvalues --   -0.53206  -0.53060  -0.52781  -0.52032  -0.51868
 Alpha  occ. eigenvalues --   -0.51622  -0.50132  -0.49006  -0.48945  -0.47859
 Alpha  occ. eigenvalues --   -0.47636  -0.46591  -0.46478  -0.46055  -0.45981
 Alpha  occ. eigenvalues --   -0.45386  -0.44872  -0.44795  -0.44422  -0.43654
 Alpha  occ. eigenvalues --   -0.43268  -0.43044  -0.42495  -0.42295  -0.42057
 Alpha  occ. eigenvalues --   -0.41907  -0.41861  -0.41210  -0.41077  -0.40892
 Alpha  occ. eigenvalues --   -0.40855  -0.40697  -0.40123  -0.39992  -0.39740
 Alpha  occ. eigenvalues --   -0.38912  -0.38674  -0.37502  -0.37275  -0.36819
 Alpha  occ. eigenvalues --   -0.36076  -0.36027  -0.35702  -0.34812  -0.34601
 Alpha  occ. eigenvalues --   -0.34282  -0.33546  -0.33436  -0.33411  -0.33104
 Alpha  occ. eigenvalues --   -0.32604  -0.32280  -0.31832  -0.30911  -0.30151
 Alpha  occ. eigenvalues --   -0.28984  -0.28923  -0.27763  -0.27136  -0.25950
 Alpha  occ. eigenvalues --   -0.24904  -0.23708  -0.23104  -0.21909  -0.18394
 Alpha  occ. eigenvalues --   -0.17163
 Alpha virt. eigenvalues --   -0.10300  -0.09069  -0.04997  -0.03796  -0.03297
 Alpha virt. eigenvalues --   -0.02089  -0.00702   0.00523   0.01542   0.01731
 Alpha virt. eigenvalues --    0.02393   0.02715   0.03045   0.03735   0.03937
 Alpha virt. eigenvalues --    0.03969   0.04465   0.05264   0.05581   0.05843
 Alpha virt. eigenvalues --    0.05916   0.06408   0.07208   0.07629   0.07728
 Alpha virt. eigenvalues --    0.07826   0.08621   0.08891   0.08951   0.09552
 Alpha virt. eigenvalues --    0.09618   0.09798   0.10836   0.10909   0.11068
 Alpha virt. eigenvalues --    0.11551   0.12469   0.12741   0.13373   0.13751
 Alpha virt. eigenvalues --    0.14226   0.14787   0.15098   0.15584   0.17662
 Alpha virt. eigenvalues --    0.17816   0.18374   0.18796   0.18944   0.19203
 Alpha virt. eigenvalues --    0.19491   0.20197   0.22377   0.22527   0.23540
 Alpha virt. eigenvalues --    0.23700   0.23977   0.24333   0.25093   0.25140
 Alpha virt. eigenvalues --    0.25563   0.26166   0.27064   0.27167   0.27532
 Alpha virt. eigenvalues --    0.27768   0.28007   0.28164   0.28699   0.28760
 Alpha virt. eigenvalues --    0.28852   0.29249   0.29566   0.30011   0.30077
 Alpha virt. eigenvalues --    0.30316   0.30708   0.31298   0.31346   0.31929
 Alpha virt. eigenvalues --    0.32332   0.34081   0.34366   0.35022   0.35994
 Alpha virt. eigenvalues --    0.36059   0.36185   0.36540   0.36964   0.37050
 Alpha virt. eigenvalues --    0.37199   0.37401   0.37684   0.37909   0.37956
 Alpha virt. eigenvalues --    0.38360   0.38455   0.38496   0.38778   0.39235
 Alpha virt. eigenvalues --    0.39445   0.39513   0.39736   0.39861   0.40021
 Alpha virt. eigenvalues --    0.40510   0.40660   0.40808   0.41168   0.41450
 Alpha virt. eigenvalues --    0.41783   0.42121   0.42216   0.42288   0.42422
 Alpha virt. eigenvalues --    0.42501   0.42618   0.42873   0.43103   0.43218
 Alpha virt. eigenvalues --    0.43583   0.43992   0.44063   0.44639   0.45040
 Alpha virt. eigenvalues --    0.45219   0.45255   0.45578   0.45786   0.45788
 Alpha virt. eigenvalues --    0.45898   0.45911   0.46014   0.46271   0.46395
 Alpha virt. eigenvalues --    0.46404   0.46612   0.47073   0.47147   0.47236
 Alpha virt. eigenvalues --    0.47584   0.47653   0.48427   0.48454   0.48861
 Alpha virt. eigenvalues --    0.49083   0.49173   0.49372   0.49670   0.50154
 Alpha virt. eigenvalues --    0.50251   0.50264   0.50749   0.50946   0.51260
 Alpha virt. eigenvalues --    0.51905   0.52174   0.52418   0.52616   0.53091
 Alpha virt. eigenvalues --    0.54007   0.54159   0.54331   0.54658   0.54724
 Alpha virt. eigenvalues --    0.55848   0.56248   0.56761   0.57358   0.57394
 Alpha virt. eigenvalues --    0.58467   0.58620   0.59188   0.59556   0.59862
 Alpha virt. eigenvalues --    0.59970   0.60593   0.61179   0.61474   0.61519
 Alpha virt. eigenvalues --    0.61576   0.61641   0.61961   0.62177   0.62213
 Alpha virt. eigenvalues --    0.62583   0.62746   0.63051   0.63367   0.63389
 Alpha virt. eigenvalues --    0.63953   0.64122   0.64449   0.64783   0.65518
 Alpha virt. eigenvalues --    0.65731   0.65784   0.66264   0.66329   0.66475
 Alpha virt. eigenvalues --    0.67121   0.67371   0.68287   0.69727   0.70228
 Alpha virt. eigenvalues --    0.70563   0.70632   0.71576   0.71718   0.72072
 Alpha virt. eigenvalues --    0.72518   0.72560   0.72970   0.73078   0.73643
 Alpha virt. eigenvalues --    0.74237   0.74685   0.74705   0.75177   0.76135
 Alpha virt. eigenvalues --    0.76156   0.76845   0.77033   0.77345   0.78061
 Alpha virt. eigenvalues --    0.78406   0.78664   0.79078   0.79323   0.80199
 Alpha virt. eigenvalues --    0.80427   0.80644   0.80828   0.81339   0.82175
 Alpha virt. eigenvalues --    0.82180   0.82538   0.82646   0.83023   0.83375
 Alpha virt. eigenvalues --    0.83531   0.84056   0.84661   0.84868   0.85364
 Alpha virt. eigenvalues --    0.85815   0.86020   0.87858   0.88267   0.88313
 Alpha virt. eigenvalues --    0.89809   0.90027   0.90587   0.90911   0.91504
 Alpha virt. eigenvalues --    0.91594   0.92042   0.93158   0.93224   0.93269
 Alpha virt. eigenvalues --    0.93605   0.94455   0.94971   0.95207   0.95543
 Alpha virt. eigenvalues --    0.95978   0.96134   0.96473   0.96813   0.96824
 Alpha virt. eigenvalues --    0.97898   0.98069   0.98233   0.99228   0.99698
 Alpha virt. eigenvalues --    0.99988   1.00548   1.00762   1.01786   1.02203
 Alpha virt. eigenvalues --    1.02552   1.02732   1.03254   1.03380   1.03864
 Alpha virt. eigenvalues --    1.04399   1.04912   1.05050   1.05187   1.05660
 Alpha virt. eigenvalues --    1.05980   1.06039   1.06062   1.06192   1.06213
 Alpha virt. eigenvalues --    1.06676   1.07041   1.07635   1.07893   1.08119
 Alpha virt. eigenvalues --    1.08234   1.09105   1.09241   1.09932   1.10249
 Alpha virt. eigenvalues --    1.10721   1.10805   1.11595   1.11763   1.12754
 Alpha virt. eigenvalues --    1.12977   1.12999   1.13552   1.13886   1.14026
 Alpha virt. eigenvalues --    1.14920   1.15197   1.15523   1.16027   1.16164
 Alpha virt. eigenvalues --    1.17210   1.17980   1.18160   1.19108   1.19979
 Alpha virt. eigenvalues --    1.20956   1.21665   1.22792   1.23209   1.23522
 Alpha virt. eigenvalues --    1.24077   1.25471   1.27777   1.28048   1.30267
 Alpha virt. eigenvalues --    1.30738   1.30978   1.32560   1.32818   1.33102
 Alpha virt. eigenvalues --    1.34053   1.35025   1.35530   1.36248   1.37414
 Alpha virt. eigenvalues --    1.38437   1.39043   1.39588   1.39868   1.40139
 Alpha virt. eigenvalues --    1.40393   1.40675   1.40756   1.41460   1.42320
 Alpha virt. eigenvalues --    1.42623   1.43445   1.43702   1.44144   1.45138
 Alpha virt. eigenvalues --    1.45237   1.45697   1.46191   1.46875   1.46997
 Alpha virt. eigenvalues --    1.47333   1.47820   1.48123   1.48853   1.49312
 Alpha virt. eigenvalues --    1.49344   1.49501   1.49991   1.50026   1.50411
 Alpha virt. eigenvalues --    1.50584   1.51225   1.51409   1.52885   1.52914
 Alpha virt. eigenvalues --    1.53032   1.53795   1.53874   1.54233   1.54282
 Alpha virt. eigenvalues --    1.54368   1.54469   1.54961   1.55015   1.55540
 Alpha virt. eigenvalues --    1.55613   1.57102   1.57609   1.57753   1.57956
 Alpha virt. eigenvalues --    1.58914   1.59258   1.59770   1.60090   1.60621
 Alpha virt. eigenvalues --    1.61229   1.61411   1.62383   1.62920   1.63689
 Alpha virt. eigenvalues --    1.64473   1.65314   1.66204   1.66293   1.67457
 Alpha virt. eigenvalues --    1.69136   1.69584   1.69851   1.70369   1.70405
 Alpha virt. eigenvalues --    1.70478   1.70810   1.71880   1.71994   1.72103
 Alpha virt. eigenvalues --    1.72688   1.73398   1.73440   1.73673   1.73718
 Alpha virt. eigenvalues --    1.73802   1.73919   1.74351   1.74507   1.75423
 Alpha virt. eigenvalues --    1.77042   1.78060   1.78294   1.79169   1.79671
 Alpha virt. eigenvalues --    1.79737   1.79946   1.80032   1.80944   1.81309
 Alpha virt. eigenvalues --    1.81692   1.81865   1.82386   1.82402   1.82821
 Alpha virt. eigenvalues --    1.82869   1.84276   1.84566   1.84611   1.84992
 Alpha virt. eigenvalues --    1.85241   1.86390   1.87095   1.87347   1.87555
 Alpha virt. eigenvalues --    1.87570   1.88166   1.88274   1.88344   1.88427
 Alpha virt. eigenvalues --    1.88554   1.88823   1.89013   1.90156   1.90763
 Alpha virt. eigenvalues --    1.90845   1.91344   1.91514   1.92226   1.92241
 Alpha virt. eigenvalues --    1.92499   1.92910   1.93048   1.93298   1.93335
 Alpha virt. eigenvalues --    1.93392   1.93987   1.94253   1.94306   1.95125
 Alpha virt. eigenvalues --    1.95341   1.95588   1.95651   1.96291   1.97283
 Alpha virt. eigenvalues --    1.98035   1.99632   2.00247   2.00436   2.00728
 Alpha virt. eigenvalues --    2.00796   2.00979   2.01901   2.02515   2.03762
 Alpha virt. eigenvalues --    2.04209   2.05445   2.07244   2.07853   2.08811
 Alpha virt. eigenvalues --    2.09079   2.09338   2.09994   2.10492   2.10514
 Alpha virt. eigenvalues --    2.10561   2.11822   2.12880   2.13823   2.14853
 Alpha virt. eigenvalues --    2.15258   2.15818   2.16311   2.16725   2.16941
 Alpha virt. eigenvalues --    2.17864   2.19542   2.20441   2.20890   2.21489
 Alpha virt. eigenvalues --    2.22090   2.22436   2.22698   2.23018   2.23372
 Alpha virt. eigenvalues --    2.24157   2.24403   2.25192   2.26429   2.26496
 Alpha virt. eigenvalues --    2.26769   2.27340   2.27537   2.27829   2.27884
 Alpha virt. eigenvalues --    2.27926   2.28982   2.29095   2.29628   2.31394
 Alpha virt. eigenvalues --    2.33183   2.34602   2.35292   2.36416   2.38862
 Alpha virt. eigenvalues --    2.38887   2.40060   2.40291   2.40297   2.41258
 Alpha virt. eigenvalues --    2.42664   2.42871   2.44039   2.44304   2.45311
 Alpha virt. eigenvalues --    2.45516   2.46136   2.46490   2.46700   2.48318
 Alpha virt. eigenvalues --    2.50659   2.52514   2.52871   2.52921   2.53892
 Alpha virt. eigenvalues --    2.54310   2.54478   2.54784   2.56032   2.56244
 Alpha virt. eigenvalues --    2.56713   2.58116   2.58433   2.59074   2.59406
 Alpha virt. eigenvalues --    2.59420   2.59520   2.60417   2.60532   2.60716
 Alpha virt. eigenvalues --    2.60757   2.61257   2.61685   2.61869   2.62650
 Alpha virt. eigenvalues --    2.62699   2.62946   2.63537   2.63843   2.64435
 Alpha virt. eigenvalues --    2.64601   2.64783   2.65656   2.65952   2.66407
 Alpha virt. eigenvalues --    2.66700   2.66862   2.67241   2.67252   2.67837
 Alpha virt. eigenvalues --    2.68109   2.68548   2.68653   2.68926   2.69277
 Alpha virt. eigenvalues --    2.69494   2.69534   2.69824   2.70170   2.70253
 Alpha virt. eigenvalues --    2.70286   2.70598   2.71120   2.71712   2.73020
 Alpha virt. eigenvalues --    2.73545   2.74022   2.74224   2.74641   2.75384
 Alpha virt. eigenvalues --    2.75509   2.76346   2.76378   2.77292   2.77853
 Alpha virt. eigenvalues --    2.77906   2.78208   2.78566   2.78730   2.78937
 Alpha virt. eigenvalues --    2.79495   2.80152   2.80838   2.80908   2.81512
 Alpha virt. eigenvalues --    2.82029   2.82997   2.83774   2.84687   2.85400
 Alpha virt. eigenvalues --    2.85972   2.86388   2.86654   2.86940   2.87268
 Alpha virt. eigenvalues --    2.88674   2.89491   2.89625   2.90547   2.91700
 Alpha virt. eigenvalues --    2.92172   2.92325   2.93177   2.93228   2.93660
 Alpha virt. eigenvalues --    2.94821   2.95387   2.95514   2.97478   2.97705
 Alpha virt. eigenvalues --    2.98790   3.00237   3.00440   3.01955   3.03308
 Alpha virt. eigenvalues --    3.04138   3.05451   3.06543   3.06672   3.07087
 Alpha virt. eigenvalues --    3.07936   3.08466   3.15675   3.15746   3.16151
 Alpha virt. eigenvalues --    3.16909   3.17146   3.17614   3.19529   3.19799
 Alpha virt. eigenvalues --    3.20683   3.21003   3.23205   3.24485   3.28984
 Alpha virt. eigenvalues --    3.29571   3.30046   3.30523   3.31308   3.32558
 Alpha virt. eigenvalues --    3.34963   3.35548   3.35984   3.36235   3.36573
 Alpha virt. eigenvalues --    3.36693   3.36847   3.37682   3.38001   3.38875
 Alpha virt. eigenvalues --    3.39574   3.40801   3.40975   3.42848   3.44878
 Alpha virt. eigenvalues --    3.45035   3.45774   3.46337   3.48470   3.48476
 Alpha virt. eigenvalues --    3.49508   3.49643   3.50593   3.51230   3.53021
 Alpha virt. eigenvalues --    3.54182   3.57121   3.58270   3.58471   3.59543
 Alpha virt. eigenvalues --    3.61512   3.62368   3.62555   3.63171   3.63526
 Alpha virt. eigenvalues --    3.63840   3.65757   3.65883   3.66055   3.67128
 Alpha virt. eigenvalues --    3.67657   3.67982   3.69205   3.69214   4.00041
 Alpha virt. eigenvalues --    4.00098   4.01448   4.01537   4.01605   4.01782
 Alpha virt. eigenvalues --    4.02676   4.03015   4.15735   4.16280   4.17105
 Alpha virt. eigenvalues --    4.17344   4.17947   4.19770   4.20958   4.22070
 Alpha virt. eigenvalues --    4.22119   4.22550   4.23469   4.24094   4.25299
 Alpha virt. eigenvalues --    4.27494   4.38066   4.39841   4.61838   4.63434
 Alpha virt. eigenvalues --    4.78674   4.79256   4.80024   4.80132   4.80602
 Alpha virt. eigenvalues --    4.81568   4.82037   4.82482   4.83748   4.84174
 Alpha virt. eigenvalues --   23.39237  23.40749  23.54707  23.56108  23.69355
 Alpha virt. eigenvalues --   23.70449  23.77234  23.78300  23.80596  23.81210
 Alpha virt. eigenvalues --   23.81639  23.82510  23.85869  23.86974  23.88803
 Alpha virt. eigenvalues --   23.89267  23.89937  23.90031  23.91930  23.93167
 Alpha virt. eigenvalues --   23.97051  23.97954  23.98394  23.99125  24.08625
 Alpha virt. eigenvalues --   24.09442  24.09808  24.10063  24.10669  24.11266
 Alpha virt. eigenvalues --   24.11798  24.13194  24.13297  24.13869  24.14724
 Alpha virt. eigenvalues --   24.15298  24.15331  24.15405  24.16436  24.16469
 Alpha virt. eigenvalues --   24.19981  24.20026  24.21286  24.21335
          Condensed to atoms (all electrons):
 Mulliken charges:
               1
     1  C   -0.037302
     2  C   -0.065672
     3  C   -0.079392
     4  C   -0.049616
     5  C   -0.087405
     6  C   -0.090886
     7  C   -0.054914
     8  C   -0.025434
     9  C   -0.002406
    10  C   -0.065531
    11  H    0.084909
    12  H    0.076199
    13  H    0.077665
    14  H    0.084592
    15  H    0.096902
    16  H    0.097657
    17  C   -0.058792
    18  C   -0.025434
    19  C   -0.006518
    20  C   -0.065531
    21  H    0.074921
    22  H    0.076326
    23  C   -0.054914
    24  C   -0.037302
    25  C   -0.002406
    26  C   -0.065672
    27  H    0.076199
    28  H    0.077665
    29  C   -0.079392
    30  C   -0.087405
    31  C   -0.049616
    32  C   -0.090886
    33  H    0.084909
    34  H    0.097657
    35  H    0.096902
    36  H    0.084592
    37  C   -0.037753
    38  C   -0.097346
    39  C   -0.061025
    40  C   -0.055890
    41  C   -0.088391
    42  C   -0.110073
    43  C   -0.026526
    44  C   -0.028091
    45  C   -0.015378
    46  C   -0.099147
    47  H    0.079426
    48  H    0.071454
    49  H    0.109727
    50  H    0.111708
    51  H    0.089092
    52  H    0.091954
    53  C   -0.030759
    54  C   -0.028091
    55  C   -0.019441
    56  C   -0.099147
    57  H    0.070047
    58  H    0.107999
    59  C   -0.026526
    60  C   -0.037753
    61  C   -0.015378
    62  C   -0.097346
    63  H    0.071454
    64  H    0.109727
    65  C   -0.061025
    66  C   -0.088391
    67  C   -0.055890
    68  C   -0.110073
    69  H    0.079426
    70  H    0.091954
    71  H    0.089092
    72  H    0.111708
 Sum of Mulliken charges =   0.00000
 Mulliken charges with hydrogens summed into heavy atoms:
               1
     1  C   -0.037302
     2  C   -0.065672
     3  C    0.005517
     4  C    0.034976
     5  C    0.010253
     6  C    0.006016
     7  C    0.021285
     8  C   -0.025434
     9  C    0.075259
    10  C   -0.065531
    17  C    0.016129
    18  C   -0.025434
    19  C    0.069809
    20  C   -0.065531
    23  C    0.021285
    24  C   -0.037302
    25  C    0.075259
    26  C   -0.065672
    29  C    0.005517
    30  C    0.010253
    31  C    0.034976
    32  C    0.006016
    37  C   -0.037753
    38  C   -0.097346
    39  C    0.018402
    40  C    0.055818
    41  C    0.003563
    42  C   -0.020981
    43  C    0.044928
    44  C   -0.028091
    45  C    0.094349
    46  C   -0.099147
    53  C    0.039288
    54  C   -0.028091
    55  C    0.088558
    56  C   -0.099147
    59  C    0.044928
    60  C   -0.037753
    61  C    0.094349
    62  C   -0.097346
    65  C    0.018402
    66  C    0.003563
    67  C    0.055818
    68  C   -0.020981
         Mulliken charges condensed to fragments:
      1      0.004673
      2     -0.004673
 Electronic spatial extent (au):  <R**2>=          27461.0504
 Charge=              0.0000 electrons
 Dipole moment (field-independent basis, Debye):
    X=             -0.5765    Y=             -1.1431    Z=              0.0000  Tot=              1.2802
 Quadrupole moment (field-independent basis, Debye-Ang):
   XX=           -246.1739   YY=           -248.6758   ZZ=           -219.1981
   XY=              0.3213   XZ=              0.0000   YZ=              0.0000
 Traceless Quadrupole moment (field-independent basis, Debye-Ang):
   XX=             -8.1580   YY=            -10.6599   ZZ=             18.8179
   XY=              0.3213   XZ=              0.0000   YZ=              0.0000
 Octapole moment (field-independent basis, Debye-Ang**2):
  XXX=            -58.3047  YYY=            194.8104  ZZZ=              0.0000  XYY=             12.7526
  XXY=            -77.1757  XXZ=              0.0000  XZZ=            -10.2647  YZZ=            -27.1466
  YYZ=              0.0000  XYZ=              0.0000
 Hexadecapole moment (field-independent basis, Debye-Ang**3):
 XXXX=          -2000.4066 YYYY=         -13184.9158 ZZZZ=         -20997.5596 XXXY=          -1475.9295
 XXXZ=              0.0000 YYYX=          -1486.8244 YYYZ=              0.0000 ZZZX=              0.0000
 ZZZY=              0.0000 XXYY=          -2607.7218 XXZZ=          -4274.4461 YYZZ=          -5946.6698
 XXYZ=              0.0000 YYXZ=              0.0000 ZZXY=           -435.5222
 N-N= 4.524969652834D+03 E-N=-1.298035217378D+04  KE= 1.686676640985D+03
 Symmetry A'   KE= 9.134146366112D+02
 Symmetry A"   KE= 7.732620043736D+02
 No NMR shielding tensors so no spin-rotation constants.
 Leave Link  601 at Wed Sep 27 16:39:49 2023, MaxMem=  3221225472 cpu:              50.8 elap:               1.3
 (Enter /home/center/opt/aarch64/apps/gaussian16/c01/g16/l122.exe)
 CPIOFr:  IOpCl= 0 IRwI=-1 IRwCP=  731 ICalc= -1 LCPTot=     1419224 Len1MO=     3708034 IndFrg=     1419224
 CPIOFr:  IOpCl= 0 IRwI=-1 IRwCP=  731 ICalc=  0 LCPTot=     1419224 Len1MO=     3708034 IndFrg=     5127258
 Counterpoise: doing calculation for fragment   1 using the basis set of the full-system, NewBq=T
 Leave Link  122 at Wed Sep 27 16:39:51 2023, MaxMem=  3221225472 cpu:               8.5 elap:               0.5
 (Enter /home/center/opt/aarch64/apps/gaussian16/c01/g16/l301.exe)
 Basis read from rwf:  (5D, 7F)
 No pseudopotential information found on rwf file.
 There are   528 symmetry adapted cartesian basis functions of A'  symmetry.
 There are   476 symmetry adapted cartesian basis functions of A"  symmetry.
 There are   504 symmetry adapted basis functions of A'  symmetry.
 There are   456 symmetry adapted basis functions of A"  symmetry.
   960 basis functions,  1632 primitive gaussians,  1004 cartesian basis functions
    73 alpha electrons       73 beta electrons
       nuclear repulsion energy      1494.3575061232 Hartrees.
 IExCor=  402 DFT=T Ex+Corr=B3LYP ExCW=0 ScaHFX=  0.200000
 ScaDFX=  0.800000  0.720000  1.000000  0.810000 ScalE2=  1.000000  1.000000
 IRadAn=      5 IRanWt=     -1 IRanGd=            0 ICorTp=0 IEmpDi=131
 NAtoms=   72 NActive=   72 NUniq=   40 SFac= 3.24D+00 NAtFMM=   60 NAOKFM=T Big=F
 Integral buffers will be    131072 words long.
 Raffenetti 2 integral format.
 Two-electron integral symmetry is turned on.
 R6Disp:  Grimme-D3 Dispersion energy=       -0.0303938888 Hartrees.
 Nuclear repulsion after empirical dispersion term =     1494.3271122344 Hartrees.
 No density basis found on file    718.
 Leave Link  301 at Wed Sep 27 16:39:54 2023, MaxMem=  3221225472 cpu:               3.4 elap:               0.1
 (Enter /home/center/opt/aarch64/apps/gaussian16/c01/g16/l302.exe)
 NPDir=0 NMtPBC=     1 NCelOv=     1 NCel=       1 NClECP=     1 NCelD=      1
         NCelK=      1 NCelE2=     1 NClLst=     1 CellRange=     0.0.
 One-electron integrals computed using PRISM.
 One-electron integral symmetry used in STVInt
 NBasis=   960 RedAO= T EigKep=  3.86D-05  NBF=   504   456
 NBsUse=   960 1.00D-06 EigRej= -1.00D+00 NBFU=   504   456
 Precomputing XC quadrature grid using
 IXCGrd= 4 IRadAn=           5 IRanWt=          -1 IRanGd=           0 AccXCQ= 0.00D+00.
 Generated NRdTot=       0 NPtTot=           0 NUsed=           0 NTot=          32
 NSgBfM=   989   989   989   989   989 MxSgAt=    72 MxSgA2=    72.
 Leave Link  302 at Wed Sep 27 16:39:58 2023, MaxMem=  3221225472 cpu:              58.0 elap:               1.5
 (Enter /home/center/opt/aarch64/apps/gaussian16/c01/g16/l303.exe)
 DipDrv:  MaxL=1.
 Leave Link  303 at Wed Sep 27 16:40:00 2023, MaxMem=  3221225472 cpu:              10.5 elap:               0.4
 (Enter /home/center/opt/aarch64/apps/gaussian16/c01/g16/l401.exe)
 ExpMin= 1.03D-01 ExpMax= 4.56D+03 ExpMxC= 6.82D+02 IAcc=3 IRadAn=         5 AccDes= 0.00D+00
 Harris functional with IExCor=  402 and IRadAn=       5 diagonalized for initial guess.
 HarFok:  IExCor=  402 AccDes= 0.00D+00 IRadAn=         5 IDoV= 1 UseB2=F ITyADJ=14
 ICtDFT=  3500011 ScaDFX=  1.000000  1.000000  1.000000  1.000000
 FoFCou: FMM=F IPFlag=           0 FMFlag=      100000 FMFlg1=        2000
         NFxFlg=           0 DoJE=T BraDBF=F KetDBF=T FulRan=T
         wScrn=  0.000000 ICntrl=       500 IOpCl=  0 I1Cent=   200000004 NGrid=           0
         NMat0=    1 NMatS0=      1 NMatT0=    0 NMatD0=    1 NMtDS0=    0 NMtDT0=    0
 Petite list used in FoFCou.
 Harris En= -847.065599408703    
 JPrj=0 DoOrth=F DoCkMO=F.
 Initial guess orbital symmetries:
       Occupied  (A") (A') (A') (A") (A") (A') (A") (A') (A') (A")
                 (A") (A') (A') (A') (A") (A') (A") (A') (A") (A')
                 (A') (A") (A') (A") (A') (A") (A') (A') (A") (A')
                 (A") (A") (A') (A') (A") (A") (A') (A") (A') (A')
                 (A') (A") (A") (A") (A') (A') (A") (A') (A') (A")
                 (A') (A") (A") (A') (A') (A") (A') (A") (A') (A")
                 (A") (A') (A') (A") (A') (A") (A') (A") (A') (A')
                 (A") (A") (A')
       Virtual   (A') (A") (A") (A') (A') (A") (A') (A") (A') (A")
                 (A') (A') (A") (A') (A") (A') (A") (A') (A') (A")
                 (A") (A") (A') (A') (A") (A') (A') (A') (A') (A')
                 (A") (A") (A') (A") (A") (A') (A') (A") (A") (A')
                 (A') (A") (A") (A') (A") (A') (A") (A') (A") (A')
                 (A') (A") (A") (A') (A') (A") (A') (A') (A") (A')
                 (A') (A") (A') (A") (A") (A') (A") (A') (A") (A')
                 (A') (A") (A") (A") (A') (A') (A') (A') (A') (A")
                 (A') (A') (A") (A") (A') (A') (A") (A") (A') (A")
                 (A") (A") (A") (A') (A") (A') (A") (A') (A') (A')
                 (A') (A") (A') (A') (A') (A") (A') (A') (A") (A")
                 (A") (A') (A') (A") (A') (A") (A") (A') (A") (A")
                 (A") (A') (A') (A") (A') (A') (A") (A') (A') (A")
                 (A") (A') (A') (A') (A") (A') (A") (A') (A') (A')
                 (A") (A') (A") (A') (A") (A") (A') (A") (A') (A")
                 (A') (A") (A") (A") (A') (A") (A') (A') (A') (A")
                 (A') (A') (A") (A') (A") (A") (A') (A") (A') (A")
                 (A') (A") (A') (A") (A') (A") (A') (A") (A') (A')
                 (A") (A') (A") (A') (A") (A") (A') (A") (A') (A')
                 (A') (A") (A') (A") (A') (A") (A') (A") (A') (A")
                 (A") (A') (A") (A") (A') (A") (A') (A') (A") (A')
                 (A') (A') (A") (A") (A") (A') (A") (A') (A") (A")
                 (A') (A') (A') (A') (A") (A") (A') (A') (A') (A")
                 (A') (A') (A") (A") (A") (A') (A') (A") (A") (A")
                 (A') (A") (A') (A') (A") (A') (A') (A") (A") (A")
                 (A") (A') (A") (A') (A') (A') (A') (A') (A") (A")
                 (A') (A") (A") (A') (A') (A') (A") (A") (A') (A")
                 (A') (A') (A") (A") (A") (A') (A") (A') (A') (A")
                 (A") (A') (A') (A') (A") (A') (A") (A") (A') (A")
                 (A') (A') (A") (A') (A') (A") (A') (A") (A') (A')
                 (A") (A') (A') (A") (A") (A') (A") (A") (A") (A")
                 (A') (A") (A') (A") (A') (A') (A') (A') (A") (A')
                 (A") (A') (A") (A") (A') (A') (A") (A') (A") (A')
                 (A") (A') (A') (A') (A') (A") (A") (A') (A") (A')
                 (A') (A") (A") (A") (A') (A") (A") (A') (A') (A')
                 (A') (A") (A") (A') (A") (A') (A") (A') (A') (A')
                 (A") (A') (A") (A') (A") (A") (A") (A') (A") (A')
                 (A") (A') (A') (A") (A') (A") (A") (A') (A") (A')
                 (A") (A') (A') (A") (A") (A') (A') (A") (A') (A')
                 (A") (A") (A') (A") (A') (A") (A') (A") (A') (A")
                 (A') (A') (A") (A") (A") (A') (A") (A') (A') (A")
                 (A') (A") (A') (A') (A') (A") (A") (A') (A") (A')
                 (A") (A') (A") (A") (A') (A") (A') (A") (A') (A")
                 (A") (A') (A') (A') (A') (A") (A') (A") (A") (A')
                 (A") (A') (A') (A') (A") (A') (A") (A") (A") (A")
                 (A') (A') (A') (A') (A') (A") (A') (A") (A") (A")
                 (A') (A") (A') (A") (A') (A") (A') (A") (A') (A')
                 (A") (A') (A") (A") (A') (A") (A') (A") (A') (A")
                 (A') (A") (A") (A') (A") (A') (A') (A") (A") (A')
                 (A") (A') (A') (A") (A') (A") (A') (A') (A") (A")
                 (A') (A") (A') (A") (A') (A') (A") (A") (A') (A")
                 (A') (A') (A") (A") (A') (A") (A") (A') (A') (A')
                 (A") (A') (A") (A") (A') (A') (A") (A') (A") (A')
                 (A') (A") (A") (A') (A') (A") (A') (A') (A") (A')
                 (A") (A") (A') (A') (A') (A") (A') (A") (A") (A')
                 (A") (A") (A') (A") (A') (A') (A") (A') (A') (A")
                 (A') (A") (A') (A") (A') (A") (A") (A") (A') (A")
                 (A') (A') (A") (A') (A') (A') (A') (A") (A') (A")
                 (A") (A') (A") (A") (A') (A') (A") (A") (A") (A')
                 (A") (A') (A') (A') (A') (A") (A') (A') (A") (A")
                 (A') (A") (A") (A") (A') (A') (A") (A') (A") (A')
                 (A') (A") (A') (A") (A') (A") (A') (A") (A') (A")
                 (A') (A') (A") (A") (A') (A") (A") (A') (A') (A")
                 (A") (A') (A") (A") (A") (A') (A') (A') (A') (A")
                 (A') (A") (A') (A') (A") (A") (A') (A") (A') (A")
                 (A') (A") (A') (A") (A') (A") (A') (A") (A") (A')
                 (A") (A') (A") (A') (A") (A') (A") (A") (A') (A')
                 (A') (A") (A") (A') (A') (A") (A') (A") (A') (A')
                 (A") (A') (A") (A') (A") (A') (A") (A') (A') (A")
                 (A') (A") (A') (A') (A") (A") (A') (A") (A') (A')
[...]
                 (A") (A") (A')
       Virtual   (A') (A") (A") (A') (A') (A") (A') (A') (A') (A")
                 (A") (A') (A") (A') (A") (A') (A") (A") (A') (A")
                 (A') (A') (A") (A') (A") (A') (A') (A') (A') (A")
                 (A") (A") (A") (A') (A') (A") (A') (A") (A') (A")
                 (A') (A') (A') (A") (A') (A") (A") (A') (A') (A")
                 (A") (A') (A') (A") (A') (A") (A") (A") (A') (A")
                 (A') (A') (A') (A') (A') (A") (A') (A') (A") (A")
                 (A") (A') (A') (A') (A") (A') (A") (A") (A") (A')
                 (A') (A") (A') (A") (A") (A') (A") (A') (A') (A')
                 (A') (A') (A") (A") (A") (A") (A') (A") (A') (A")
                 (A') (A') (A') (A") (A") (A') (A') (A") (A') (A")
                 (A') (A") (A") (A") (A') (A') (A") (A') (A') (A")
                 (A') (A") (A") (A') (A') (A") (A') (A") (A') (A")
                 (A") (A') (A') (A') (A') (A") (A") (A") (A') (A")
                 (A') (A") (A') (A") (A') (A') (A") (A") (A') (A")
                 (A') (A") (A') (A") (A') (A') (A") (A') (A") (A")
                 (A') (A") (A') (A') (A") (A") (A') (A") (A') (A")
                 (A') (A') (A") (A') (A') (A") (A") (A') (A') (A')
                 (A") (A') (A") (A") (A") (A") (A') (A") (A') (A')
                 (A") (A') (A") (A') (A') (A') (A") (A') (A") (A')
                 (A") (A") (A') (A') (A") (A") (A') (A') (A") (A')
                 (A') (A') (A') (A") (A") (A") (A") (A') (A') (A")
                 (A') (A") (A") (A') (A") (A') (A") (A') (A") (A')
                 (A") (A') (A') (A") (A') (A") (A") (A') (A') (A")
                 (A") (A') (A') (A") (A") (A') (A") (A") (A") (A')
                 (A') (A") (A') (A') (A") (A') (A') (A") (A') (A")
                 (A") (A') (A") (A') (A') (A") (A") (A") (A') (A')
                 (A") (A') (A') (A") (A") (A") (A') (A") (A') (A')
                 (A") (A') (A") (A') (A") (A') (A') (A') (A") (A')
                 (A") (A") (A') (A') (A") (A") (A') (A") (A') (A")
                 (A') (A') (A") (A") (A') (A') (A") (A') (A') (A')
                 (A") (A") (A') (A") (A') (A") (A') (A") (A') (A')
                 (A') (A") (A") (A") (A') (A") (A') (A') (A') (A")
                 (A") (A') (A") (A') (A') (A") (A') (A") (A") (A')
                 (A') (A") (A') (A") (A") (A') (A') (A") (A') (A")
                 (A') (A") (A') (A") (A') (A") (A") (A') (A') (A")
                 (A') (A") (A') (A') (A") (A") (A') (A") (A') (A')
                 (A") (A') (A") (A') (A') (A") (A') (A") (A') (A")
                 (A") (A') (A") (A') (A") (A') (A") (A') (A') (A")
                 (A") (A') (A") (A') (A') (A") (A") (A') (A') (A")
                 (A') (A") (A') (A") (A') (A') (A")
 The electronic state is 1-A'.
 Alpha  occ. eigenvalues --  -10.18931 -10.18930 -10.18896 -10.18895 -10.18848
 Alpha  occ. eigenvalues --  -10.18848 -10.18813 -10.18813 -10.17956 -10.17955
 Alpha  occ. eigenvalues --  -10.17920 -10.17920 -10.17919 -10.17919 -10.17875
 Alpha  occ. eigenvalues --  -10.17875 -10.17863 -10.17863 -10.17808 -10.17808
 Alpha  occ. eigenvalues --  -10.17781 -10.17781  -0.89340  -0.87865  -0.85549
 Alpha  occ. eigenvalues --   -0.82415  -0.79820  -0.78521  -0.78314  -0.75991
 Alpha  occ. eigenvalues --   -0.74255  -0.72901  -0.69196  -0.67344  -0.62728
 Alpha  occ. eigenvalues --   -0.62370  -0.61108  -0.59964  -0.59301  -0.57689
 Alpha  occ. eigenvalues --   -0.52709  -0.52573  -0.52293  -0.49654  -0.48513
 Alpha  occ. eigenvalues --   -0.47160  -0.46110  -0.45590  -0.45476  -0.43928
 Alpha  occ. eigenvalues --   -0.43182  -0.42578  -0.41808  -0.41572  -0.41386
 Alpha  occ. eigenvalues --   -0.40692  -0.40405  -0.39579  -0.38193  -0.36732
 Alpha  occ. eigenvalues --   -0.36341  -0.35550  -0.34094  -0.33809  -0.33058
 Alpha  occ. eigenvalues --   -0.32930  -0.31612  -0.29665  -0.28406  -0.26623
 Alpha  occ. eigenvalues --   -0.24364  -0.22582  -0.17855
 Alpha virt. eigenvalues --   -0.09755  -0.04464  -0.02747  -0.00147   0.02073
 Alpha virt. eigenvalues --    0.02370   0.03189   0.04746   0.04859   0.04871
 Alpha virt. eigenvalues --    0.06161   0.06575   0.07968   0.08162   0.08303
 Alpha virt. eigenvalues --    0.09607   0.10049   0.11524   0.11533   0.13796
 Alpha virt. eigenvalues --    0.14111   0.14670   0.18092   0.18194   0.18832
 Alpha virt. eigenvalues --    0.19391   0.22815   0.23002   0.24379   0.24942
 Alpha virt. eigenvalues --    0.25581   0.27528   0.27575   0.28012   0.28228
 Alpha virt. eigenvalues --    0.28947   0.29389   0.30158   0.30759   0.31175
 Alpha virt. eigenvalues --    0.32897   0.34528   0.36420   0.36484   0.37134
 Alpha virt. eigenvalues --    0.37503   0.37629   0.37651   0.38116   0.38643
 Alpha virt. eigenvalues --    0.39094   0.39439   0.39739   0.40236   0.40435
 Alpha virt. eigenvalues --    0.41918   0.41926   0.41940   0.42289   0.42318
 Alpha virt. eigenvalues --    0.42643   0.43748   0.44233   0.44835   0.45295
 Alpha virt. eigenvalues --    0.45683   0.45924   0.45953   0.46379   0.47165
 Alpha virt. eigenvalues --    0.47805   0.47809   0.47978   0.48073   0.48231
 Alpha virt. eigenvalues --    0.48568   0.49414   0.49572   0.51377   0.51846
 Alpha virt. eigenvalues --    0.52370   0.53118   0.53671   0.55998   0.57923
 Alpha virt. eigenvalues --    0.57955   0.59048   0.59201   0.60433   0.60585
 Alpha virt. eigenvalues --    0.60693   0.61101   0.61690   0.62105   0.62173
 Alpha virt. eigenvalues --    0.63432   0.63481   0.64458   0.64535   0.65533
 Alpha virt. eigenvalues --    0.66693   0.66910   0.67680   0.67724   0.70658
 Alpha virt. eigenvalues --    0.71305   0.71405   0.71494   0.72803   0.73989
 Alpha virt. eigenvalues --    0.75405   0.75894   0.76289   0.77801   0.77809
 Alpha virt. eigenvalues --    0.78943   0.79160   0.79723   0.81162   0.81509
 Alpha virt. eigenvalues --    0.82881   0.83001   0.84383   0.84585   0.84713
 Alpha virt. eigenvalues --    0.88087   0.89711   0.89765   0.91536   0.92083
 Alpha virt. eigenvalues --    0.92578   0.93749   0.95806   0.96107   0.96442
 Alpha virt. eigenvalues --    0.96590   0.96905   0.98547   1.00356   1.01118
 Alpha virt. eigenvalues --    1.02686   1.03027   1.03354   1.04405   1.05244
 Alpha virt. eigenvalues --    1.05439   1.05525   1.05950   1.07395   1.07547
 Alpha virt. eigenvalues --    1.07686   1.08438   1.10005   1.10036   1.12070
 Alpha virt. eigenvalues --    1.13223   1.13544   1.13650   1.14526   1.15341
 Alpha virt. eigenvalues --    1.17432   1.18332   1.19657   1.20432   1.23014
 Alpha virt. eigenvalues --    1.23618   1.27884   1.28234   1.30579   1.32076
 Alpha virt. eigenvalues --    1.32743   1.34942   1.37641   1.39236   1.39896
 Alpha virt. eigenvalues --    1.39942   1.40725   1.42751   1.43476   1.43554
 Alpha virt. eigenvalues --    1.45057   1.46086   1.47119   1.47538   1.48841
 Alpha virt. eigenvalues --    1.49280   1.49417   1.50258   1.50674   1.52268
 Alpha virt. eigenvalues --    1.52650   1.53402   1.54331   1.54372   1.54781
 Alpha virt. eigenvalues --    1.54807   1.57107   1.57715   1.58569   1.59882
 Alpha virt. eigenvalues --    1.60106   1.62692   1.63242   1.64856   1.66641
 Alpha virt. eigenvalues --    1.69292   1.69605   1.69709   1.70649   1.71804
 Alpha virt. eigenvalues --    1.72459   1.72619   1.73075   1.73096   1.73680
 Alpha virt. eigenvalues --    1.77494   1.78519   1.79157   1.79419   1.80511
 Alpha virt. eigenvalues --    1.81616   1.81887   1.82058   1.83581   1.84039
 Alpha virt. eigenvalues --    1.85487   1.87392   1.87456   1.87577   1.87728
 Alpha virt. eigenvalues --    1.88131   1.88613   1.90743   1.91387   1.92190
 Alpha virt. eigenvalues --    1.92193   1.92572   1.92670   1.93517   1.93938
 Alpha virt. eigenvalues --    1.94544   1.95483   1.97262   1.99429   2.00088
 Alpha virt. eigenvalues --    2.00602   2.01362   2.03019   2.05757   2.08293
 Alpha virt. eigenvalues --    2.09111   2.09256   2.09792   2.12192   2.14098
 Alpha virt. eigenvalues --    2.15528   2.15584   2.17200   2.19751   2.20833
 Alpha virt. eigenvalues --    2.21576   2.22525   2.23381   2.24503   2.26441
 Alpha virt. eigenvalues --    2.26972   2.27242   2.27719   2.28046   2.29391
 Alpha virt. eigenvalues --    2.33301   2.35725   2.39155   2.39384   2.40817
 Alpha virt. eigenvalues --    2.42649   2.43076   2.45776   2.45994   2.46870
 Alpha virt. eigenvalues --    2.51623   2.51954   2.53354   2.53485   2.55138
 Alpha virt. eigenvalues --    2.56159   2.58701   2.58838   2.59764   2.59776
 Alpha virt. eigenvalues --    2.60682   2.61147   2.61719   2.62222   2.63349
 Alpha virt. eigenvalues --    2.63999   2.64478   2.66054   2.66794   2.67121
 Alpha virt. eigenvalues --    2.67374   2.68356   2.68872   2.68876   2.69372
 Alpha virt. eigenvalues --    2.69557   2.69907   2.70083   2.70281   2.73482
 Alpha virt. eigenvalues --    2.74771   2.74836   2.76066   2.77101   2.77577
 Alpha virt. eigenvalues --    2.78232   2.78455   2.78850   2.80822   2.82359
 Alpha virt. eigenvalues --    2.85535   2.85993   2.86737   2.87294   2.90966
 Alpha virt. eigenvalues --    2.91783   2.92195   2.93676   2.95232   2.95887
 Alpha virt. eigenvalues --    2.99270   2.99858   3.03165   3.05604   3.06852
 Alpha virt. eigenvalues --    3.07371   3.15988   3.16029   3.16647   3.19843
 Alpha virt. eigenvalues --    3.20017   3.23601   3.29134   3.29680   3.31610
 Alpha virt. eigenvalues --    3.35095   3.35458   3.35677   3.35858   3.38023
 Alpha virt. eigenvalues --    3.39887   3.41413   3.44960   3.45362   3.47993
 Alpha virt. eigenvalues --    3.48278   3.50401   3.53073   3.57439   3.58649
 Alpha virt. eigenvalues --    3.61466   3.62620   3.63208   3.63698   3.65910
 Alpha virt. eigenvalues --    3.67534   3.67678   4.00384   4.00442   4.01859
 Alpha virt. eigenvalues --    4.02182   4.16133   4.16678   4.17360   4.21240
 Alpha virt. eigenvalues --    4.22396   4.22517   4.25488   4.38492   4.62290
 Alpha virt. eigenvalues --    4.79179   4.79740   4.80562   4.82562   4.83014
 Alpha virt. eigenvalues --   23.39176  23.54541  23.69085  23.77378  23.80419
 Alpha virt. eigenvalues --   23.81537  23.86099  23.89067  23.89154  23.92210
 Alpha virt. eigenvalues --   23.97563  23.98365  24.09049  24.09932  24.10529
 Alpha virt. eigenvalues --   24.12220  24.13779  24.14375  24.15775  24.15810
 Alpha virt. eigenvalues --   24.20452  24.20497
          Condensed to atoms (all electrons):
 Mulliken charges:
               1
     1  C    0.000000
     2  C    0.000000
     3  C    0.000000
     4  C    0.000000
     5  C    0.000000
     6  C    0.000000
     7  C    0.000000
     8  C    0.000000
     9  C    0.000000
    10  C    0.000000
    11  H    0.000000
    12  H    0.000000
    13  H    0.000000
    14  H    0.000000
    15  H    0.000000
    16  H    0.000000
    17  C    0.000000
    18  C    0.000000
    19  C    0.000000
    20  C    0.000000
    21  H    0.000000
    22  H    0.000000
    23  C    0.000000
    24  C    0.000000
    25  C    0.000000
    26  C    0.000000
    27  H    0.000000
    28  H    0.000000
    29  C    0.000000
    30  C    0.000000
    31  C    0.000000
    32  C    0.000000
    33  H    0.000000
    34  H    0.000000
    35  H    0.000000
    36  H    0.000000
    37  C   -0.059168
    38  C   -0.059168
    39  C   -0.055977
    40  C   -0.055977
    41  C   -0.092198
    42  C   -0.092198
    43  C   -0.016525
    44  C   -0.054498
    45  C   -0.016525
    46  C   -0.054498
    47  H    0.082122
    48  H    0.074853
    49  H    0.074853
    50  H    0.082122
    51  H    0.094847
    52  H    0.094847
    53  C   -0.020341
    54  C   -0.054498
    55  C   -0.020341
    56  C   -0.054498
    57  H    0.073428
    58  H    0.073428
    59  C   -0.016525
    60  C   -0.059168
    61  C   -0.016525
    62  C   -0.059168
    63  H    0.074853
    64  H    0.074853
    65  C   -0.055977
    66  C   -0.092198
    67  C   -0.055977
    68  C   -0.092198
    69  H    0.082122
    70  H    0.094847
    71  H    0.094847
    72  H    0.082122
 Sum of Mulliken charges =   0.00000
 Mulliken charges with hydrogens summed into heavy atoms:
               1
     1  C    0.000000
     2  C    0.000000
     3  C    0.000000
     4  C    0.000000
     5  C    0.000000
     6  C    0.000000
     7  C    0.000000
     8  C    0.000000
     9  C    0.000000
    10  C    0.000000
    17  C    0.000000
    18  C    0.000000
    19  C    0.000000
    20  C    0.000000
    23  C    0.000000
    24  C    0.000000
    25  C    0.000000
    26  C    0.000000
    29  C    0.000000
    30  C    0.000000
    31  C    0.000000
    32  C    0.000000
    37  C   -0.059168
    38  C   -0.059168
    39  C    0.026144
    40  C    0.026144
    41  C    0.002649
    42  C    0.002649
    43  C    0.058328
    44  C   -0.054498
    45  C    0.058328
    46  C   -0.054498
    53  C    0.053087
    54  C   -0.054498
    55  C    0.053087
    56  C   -0.054498
    59  C    0.058328
    60  C   -0.059168
    61  C    0.058328
    62  C   -0.059168
    65  C    0.026144
    66  C    0.002649
    67  C    0.026144
    68  C    0.002649
         Mulliken charges condensed to fragments:
      1      0.000000
      2      0.000000
 Electronic spatial extent (au):  <R**2>=          13990.5645
 Charge=              0.0000 electrons
 Dipole moment (field-independent basis, Debye):
    X=              0.0000    Y=              0.0000    Z=              0.0000  Tot=              0.0000
 Quadrupole moment (field-independent basis, Debye-Ang):
   XX=           -136.3921   YY=           -110.7480   ZZ=           -109.0115
   XY=              0.0000   XZ=              0.0000   YZ=              0.0000
 Traceless Quadrupole moment (field-independent basis, Debye-Ang):
   XX=            -17.6749   YY=              7.9692   ZZ=              9.7057
   XY=              0.0000   XZ=              0.0000   YZ=              0.0000
 Octapole moment (field-independent basis, Debye-Ang**2):
  XXX=            867.9938  YYY=            704.7961  ZZZ=              0.0000  XYY=            234.9321
  XXY=            289.3312  XXZ=              0.0000  XZZ=            231.2483  YZZ=            231.2483
  YYZ=              0.0000  XYZ=              0.0000
 Hexadecapole moment (field-independent basis, Debye-Ang**3):
 XXXX=          -3836.9895 YYYY=          -4106.9137 ZZZZ=         -10461.4324 XXXY=          -1841.2928
 XXXZ=              0.0000 YYYX=          -1495.0984 YYYZ=              0.0000 ZZZX=              0.0000
 ZZZY=              0.0000 XXYY=          -1368.5457 XXZZ=          -2698.4836 YYZZ=          -2459.7660
 XXYZ=              0.0000 YYXZ=              0.0000 ZZXY=           -490.5516
 N-N= 1.494327112306D+03 E-N=-4.953709176171D+03  KE= 8.433374905155D+02
 Symmetry A'   KE= 4.567052305476D+02
 Symmetry A"   KE= 3.866322599679D+02
 No NMR shielding tensors so no spin-rotation constants.
 Leave Link  601 at Wed Sep 27 16:56:48 2023, MaxMem=  3221225472 cpu:              19.5 elap:               0.5
 (Enter /home/center/opt/aarch64/apps/gaussian16/c01/g16/l122.exe)
 CPIOFr:  IOpCl= 0 IRwI=-1 IRwCP=  731 ICalc=  4 LCPTot=     1419224 Len1MO=     3708034 IndFrg=    19959394
 Restoring MOs from calculation   1 to rwf.
 CPIOFr:  IOpCl= 0 IRwI=-2 IRwCP=  731 ICalc=  0 LCPTot=     1419224 Len1MO=     3708034 IndFrg=     5127258
 Counterpoise corrected energy =   -1694.047361927797
                   BSSE energy =       0.001174299902
              sum of fragments =   -1694.039683044256
           complexation energy =      -5.56 kcal/mole (raw)
           complexation energy =      -4.82 kcal/mole (corrected)
 Leave Link  122 at Wed Sep 27 16:56:51 2023, MaxMem=  3221225472 cpu:               8.3 elap:               0.4
 (Enter /home/center/opt/aarch64/apps/gaussian16/c01/g16/l9999.exe)

 Test job not archived.
 1\1\GINC-FX0500\SP\RB3LYP\6-311G(d,p)\C44H28\Z40145W\27-Sep-2023\0\\#P
  TEST b3lyp/6-311G** EmpiricalDispersion=GD3 counterpoise=2\\pentacene
 _A1=0_A2=0_A3=45_p2\\0,1\C,0,-0.5039478476,0.5239478476,-3.6612755801\
 C,0,0.5239480325,-0.5039480325,-3.6612755629\C,0,-0.9861248463,1.00612
 48463,-4.9235927708\C,0,1.0061250889,-0.9861250889,-4.9235926697\C,0,-
 0.4963213507,0.5163213507,-6.096356521\C,0,0.5163216812,-0.4963216812,
 -6.0963564796\C,0,-0.9844684311,1.0044684311,-2.4533174875\C,0,-0.5044
 88426,0.524488426,-1.2140288145\C,0,1.0044685359,-0.9844685359,-2.4533
 173917\C,0,0.5244885437,-0.5044885437,-1.2140288362\H,0,-1.7533559667,
 1.7733559667,-4.9232600459\H,0,-1.7521866813,1.7721866813,-2.453928581
 5\H,0,1.7721859268,-1.7521859268,-2.4539284818\H,0,1.7733558421,-1.753
 3558421,-4.9232597785\H,0,0.8905568758,-0.8705568758,-7.0425276922\H,0
 ,-0.8705565046,0.8905565046,-7.042527775\C,0,-0.9848184961,1.004818496
 1,0.0099998782\C,0,-0.5044883957,0.5244883957,1.2340295553\C,0,1.00481
 85643,-0.9848185643,0.0099998696\C,0,0.5244885146,-0.5044885146,1.2340
 295261\H,0,-1.7524699697,1.7724699697,0.0099999205\H,0,1.772468921,-1.
 752468921,0.0099999641\C,0,-0.9844683048,1.0044683048,2.4733171385\C,0
 ,-0.5039477114,0.5239477114,3.681276331\C,0,1.0044684211,-0.9844684211
 ,2.4733170835\C,0,0.5239479079,-0.5039479079,3.6812763217\H,0,-1.75218
 65527,1.7721865527,2.4739285326\H,0,1.7721858092,-1.7521858092,2.47392
 83796\C,0,-0.9861245177,1.0061245177,4.9435920588\C,0,-0.4963209372,0.
 5163209372,6.116356633\C,0,1.0061247659,-0.9861247659,4.9435919377\C,0
 ,0.5163212637,-0.4963212637,6.1163566075\H,0,-1.7533556504,1.773355650
 4,4.9432601504\H,0,-0.8705567426,0.8905567426,7.0625274368\H,0,0.89055
 70967,-0.8705570967,7.0625272142\H,0,1.7733555414,-1.7533555414,4.9432
 599297\C,0,5.4960521524,0.5239478476,-3.6612755801\C,0,6.5239480325,-0
 .5039480325,-3.6612755629\C,0,5.0138751537,1.0061248463,-4.9235927708\
 C,0,7.0061250889,-0.9861250889,-4.9235926697\C,0,5.5036786493,0.516321
 3507,-6.096356521\C,0,6.5163216812,-0.4963216812,-6.0963564796\C,0,5.0
 155315689,1.0044684311,-2.4533174875\C,0,5.495511574,0.524488426,-1.21
 40288145\C,0,7.0044685359,-0.9844685359,-2.4533173917\C,0,6.5244885437
 ,-0.5044885437,-1.2140288362\H,0,4.2466440333,1.7733559667,-4.92326004
 59\H,0,4.2478133187,1.7721866813,-2.4539285815\H,0,7.7721859268,-1.752
 1859268,-2.4539284818\H,0,7.7733558421,-1.7533558421,-4.9232597785\H,0
 ,6.8905568758,-0.8705568758,-7.0425276922\H,0,5.1294434954,0.890556504
 6,-7.042527775\C,0,5.0151815039,1.0048184961,0.0099998782\C,0,5.495511
 6043,0.5244883957,1.2340295553\C,0,7.0048185643,-0.9848185643,0.009999
 8696\C,0,6.5244885146,-0.5044885146,1.2340295261\H,0,4.2475300303,1.77
 24699697,0.0099999205\H,0,7.772468921,-1.752468921,0.0099999641\C,0,5.
 0155316952,1.0044683048,2.4733171385\C,0,5.4960522886,0.5239477114,3.6
 81276331\C,0,7.0044684211,-0.9844684211,2.4733170835\C,0,6.5239479079,
 -0.5039479079,3.6812763217\H,0,4.2478134473,1.7721865527,2.4739285326\
 H,0,7.7721858092,-1.7521858092,2.4739283796\C,0,5.0138754823,1.0061245
 177,4.9435920588\C,0,5.5036790628,0.5163209372,6.116356633\C,0,7.00612
 47659,-0.9861247659,4.9435919377\C,0,6.5163212637,-0.4963212637,6.1163
 566075\H,0,4.2466443496,1.7733556504,4.9432601504\H,0,5.1294432574,0.8
 905567426,7.0625274368\H,0,6.8905570967,-0.8705570967,7.0625272142\H,0
 ,7.7733555414,-1.7533555414,4.9432599297\\Version=Fujitsu-Arm-G16RevC.
 01\State=1-A'\HF=-847.0198415\RMSD=3.181e-09\Dipole=-0.0000009,0.00000
 1,0.\Quadrupole=-8.4265604,-5.7982869,14.2248473,-17.8012403,0.,0.\PG=
 CS [SG(C4H4),X(C40H24)]\\@


 MARY HAD A LITTLE LAMB
      HIS FEET WERE BLACK AS SOOT,
           AND EVERYWHERE THAT MARY WENT
                HIS SOOTY FOOT HE PUT.

                    -- NONAME
 Job cpu time:       0 days  3 hours 14 minutes 38.2 seconds.
 Elapsed time:       0 days  0 hours  5 minutes  5.7 seconds.
 File lengths (MBytes):  RWF=    718 Int=      0 D2E=      0 Chk=    208 Scr=      1
 Normal termination of Gaussian 16 at Wed Sep 27 16:56:57 2023.
