 Entering Gaussian System, Link 0=g16
 Initial command:
 /home/center/opt/aarch64/apps/gaussian16/c01/g16/l1.exe "/data/tmp/Gtmp/1006953/Gau-50.inp" -scrdir="/data/tmp/Gtmp/1006953/"
 Entering Link 1 = /home/center/opt/aarch64/apps/gaussian16/c01/g16/l1.exe PID=        51.
  
 Copyright (c) 1988-2019, Gaussian, Inc.  All Rights Reserved.
  
 This is part of the Gaussian(R) 16 program.  It is based on
 the Gaussian(R) 09 system (copyright 2009, Gaussian, Inc.),
 the Gaussian(R) 03 system (copyright 2003, Gaussian, Inc.),
 the Gaussian(R) 98 system (copyright 1998, Gaussian, Inc.),
 the Gaussian(R) 94 system (copyright 1995, Gaussian, Inc.),
 the Gaussian 92(TM) system (copyright 1992, Gaussian, Inc.),
 the Gaussian 90(TM) system (copyright 1990, Gaussian, Inc.),
 the Gaussian 88(TM) system (copyright 1988, Gaussian, Inc.),
 the Gaussian 86(TM) system (copyright 1986, Carnegie Mellon
 University), and the Gaussian 82(TM) system (copyright 1983,
 Carnegie Mellon University). Gaussian is a federally registered
 trademark of Gaussian, Inc.
  
 This software contains proprietary and confidential information,
 including trade secrets, belonging to Gaussian, Inc.
  
 This software is provided under written license and may be
 used, copied, transmitted, or stored only in accord with that
 written license.
  
 The following legend is applicable only to US Government
 contracts under FAR:
  
                    RESTRICTED RIGHTS LEGEND
  
 Use, reproduction and disclosure by the US Government is
 subject to restrictions as set forth in subparagraphs (a)
 and (c) of the Commercial Computer Software - Restricted
 Rights clause in FAR 52.227-19.
  
 Gaussian, Inc.
 340 Quinnipiac St., Bldg. 40, Wallingford CT 06492
  
  
 ---------------------------------------------------------------
 Warning -- This program may not be used in any manner that
 competes with the business of Gaussian, Inc. or will provide
 assistance to any competitor of Gaussian, Inc.  The licensee
 of this program is prohibited from giving any competitor of
 Gaussian, Inc. access to this program.  By using this program,
 the user acknowledges that Gaussian, Inc. is engaged in the
 business of creating and licensing software in the field of
 computational chemistry and represents and warrants to the
 licensee that it is not a competitor of Gaussian, Inc. and that
 it will not use this program in any manner prohibited above.
 ---------------------------------------------------------------
  

 Cite this work as:
 Gaussian 16, Revision C.01,
 M. J. Frisch, G. W. Trucks, H. B. Schlegel, G. E. Scuseria, 
 M. A. Robb, J. R. Cheeseman, G. Scalmani, V. Barone, 
 G. A. Petersson, H. Nakatsuji, X. Li, M. Caricato, A. V. Marenich, 
 J. Bloino, B. G. Janesko, R. Gomperts, B. Mennucci, H. P. Hratchian, 
 J. V. Ortiz, A. F. Izmaylov, J. L. Sonnenberg, D. Williams-Young, 
 F. Ding, F. Lipparini, F. Egidi, J. Goings, B. Peng, A. Petrone, 
 T. Henderson, D. Ranasinghe, V. G. Zakrzewski, J. Gao, N. Rega, 
 G. Zheng, W. Liang, M. Hada, M. Ehara, K. Toyota, R. Fukuda, 
 J. Hasegawa, M. Ishida, T. Nakajima, Y. Honda, O. Kitao, H. Nakai, 
 T. Vreven, K. Throssell, J. A. Montgomery, Jr., J. E. Peralta, 
 F. Ogliaro, M. J. Bearpark, J. J. Heyd, E. N. Brothers, K. N. Kudin, 
 V. N. Staroverov, T. A. Keith, R. Kobayashi, J. Normand, 
 K. Raghavachari, A. P. Rendell, J. C. Burant, S. S. Iyengar, 
 J. Tomasi, M. Cossi, J. M. Millam, M. Klene, C. Adamo, R. Cammi, 
 J. W. Ochterski, R. L. Martin, K. Morokuma, O. Farkas, 
 J. B. Foresman, and D. J. Fox, Gaussian, Inc., Wallingford CT, 2019.
 
 ************************************************
 Gaussian 16:  Fujitsu-Arm-G16RevC.01  3-Jul-2019
                   27-Sep-2023 
 ************************************************
 %mem=24GB
 %nproc=42
 Will use up to   42 processors via shared memory.
 -------------------------------------------------------------
 #P TEST b3lyp/6-311G** EmpiricalDispersion=GD3 counterpoise=2
 -------------------------------------------------------------
 1/38=1,62=2,172=1/1;
 2/12=2,17=6,18=5,40=1/2;
 1/38=1,53=2,62=2,63=1/22;
 3/5=4,6=6,7=101,11=2,25=1,30=1,74=-5,124=31/1,2,3;
 4//1;
 5/5=2,38=5/2;
 6/7=2,8=2,9=2,10=2,28=1/1;
 1/53=2,62=2,63=1/22;
 3/5=7,6=11,7=101,11=2,25=1,30=1,74=-5,82=7,124=31/1,2,3;
 4//1;
 5/5=2,38=5/2;
 6/7=2,8=2,9=2,10=2,28=1/1;
 1/53=2,62=2,63=1/22(-4);
 99/5=1,9=1/99;
 Leave Link    1 at Wed Sep 27 16:37:43 2023, MaxMem=  3221225472 cpu:               6.0 elap:               0.2
 (Enter /home/center/opt/aarch64/apps/gaussian16/c01/g16/l101.exe)
 ----------------------------
 pentacene_A1=0_A2=0_A3=45_t1
 ----------------------------
 Symbolic Z-matrix:
 Charge =  0 Multiplicity = 1 in supermolecule
 Charge =  0 Multiplicity = 1 in fragment      1.
 Charge =  0 Multiplicity = 1 in fragment      2.
 C(Fragment=1)        -0.50395   0.52395  -3.66128 
 C(Fragment=1)         0.52395  -0.50395  -3.66128 
 C(Fragment=1)        -0.98612   1.00612  -4.92359 
 C(Fragment=1)         1.00613  -0.98613  -4.92359 
 C(Fragment=1)        -0.49632   0.51632  -6.09636 
 C(Fragment=1)         0.51632  -0.49632  -6.09636 
 C(Fragment=1)        -0.98447   1.00447  -2.45332 
 C(Fragment=1)        -0.50449   0.52449  -1.21403 
 C(Fragment=1)         1.00447  -0.98447  -2.45332 
 C(Fragment=1)         0.52449  -0.50449  -1.21403 
 H(Fragment=1)        -1.75336   1.77336  -4.92326 
 H(Fragment=1)        -1.75219   1.77219  -2.45393 
 H(Fragment=1)         1.77219  -1.75219  -2.45393 
 H(Fragment=1)         1.77336  -1.75336  -4.92326 
 H(Fragment=1)         0.89056  -0.87056  -7.04253 
 H(Fragment=1)        -0.87056   0.89056  -7.04253 
 C(Fragment=1)        -0.98482   1.00482   0.01 
 C(Fragment=1)        -0.50449   0.52449   1.23403 
 C(Fragment=1)         1.00482  -0.98482   0.01 
 C(Fragment=1)         0.52449  -0.50449   1.23403 
 H(Fragment=1)        -1.75247   1.77247   0.01 
 H(Fragment=1)         1.77247  -1.75247   0.01 
 C(Fragment=1)        -0.98447   1.00447   2.47332 
 C(Fragment=1)        -0.50395   0.52395   3.68128 
 C(Fragment=1)         1.00447  -0.98447   2.47332 
 C(Fragment=1)         0.52395  -0.50395   3.68128 
 H(Fragment=1)        -1.75219   1.77219   2.47393 
 H(Fragment=1)         1.77219  -1.75219   2.47393 
 C(Fragment=1)        -0.98612   1.00612   4.94359 
 C(Fragment=1)        -0.49632   0.51632   6.11636 
 C(Fragment=1)         1.00612  -0.98612   4.94359 
 C(Fragment=1)         0.51632  -0.49632   6.11636 
 H(Fragment=1)        -1.75336   1.77336   4.94326 
 H(Fragment=1)        -0.87056   0.89056   7.06253 
 H(Fragment=1)         0.89056  -0.87056   7.06253 
 H(Fragment=1)         1.77336  -1.75336   4.94326 
 C(Fragment=2)         3.77395   5.27395  -3.66128 
 C(Fragment=2)         2.74605   4.24605  -3.66128 
 C(Fragment=2)         4.25612   5.75612  -4.92359 
 C(Fragment=2)         2.26387   3.76387  -4.92359 
 C(Fragment=2)         3.76632   5.26632  -6.09636 
 C(Fragment=2)         2.75368   4.25368  -6.09636 
 C(Fragment=2)         4.25447   5.75447  -2.45332 
 C(Fragment=2)         3.77449   5.27449  -1.21403 
 C(Fragment=2)         2.26553   3.76553  -2.45332 
 C(Fragment=2)         2.74551   4.24551  -1.21403 
 H(Fragment=2)         5.02336   6.52336  -4.92326 
 H(Fragment=2)         5.02219   6.52219  -2.45393 
 H(Fragment=2)         1.49781   2.99781  -2.45393 
 H(Fragment=2)         1.49664   2.99664  -4.92326 
 H(Fragment=2)         2.37944   3.87944  -7.04253 
 H(Fragment=2)         4.14056   5.64056  -7.04253 
 C(Fragment=2)         4.25482   5.75482   0.01 
 C(Fragment=2)         3.77449   5.27449   1.23403 
 C(Fragment=2)         2.26518   3.76518   0.01 
 C(Fragment=2)         2.74551   4.24551   1.23403 
 H(Fragment=2)         5.02247   6.52247   0.01 
 H(Fragment=2)         1.49753   2.99753   0.01 
 C(Fragment=2)         4.25447   5.75447   2.47332 
 C(Fragment=2)         3.77395   5.27395   3.68128 
 C(Fragment=2)         2.26553   3.76553   2.47332 
 C(Fragment=2)         2.74605   4.24605   3.68128 
 H(Fragment=2)         5.02219   6.52219   2.47393 
 H(Fragment=2)         1.49781   2.99781   2.47393 
 C(Fragment=2)         4.25612   5.75612   4.94359 
 C(Fragment=2)         3.76632   5.26632   6.11636 
 C(Fragment=2)         2.26388   3.76388   4.94359 
 C(Fragment=2)         2.75368   4.25368   6.11636 
 H(Fragment=2)         5.02336   6.52336   4.94326 
 H(Fragment=2)         4.14056   5.64056   7.06253 
 H(Fragment=2)         2.37944   3.87944   7.06253 
 H(Fragment=2)         1.49664   2.99664   4.94326 
 
 ITRead=  0  0  0  0  0  0  0  0  0  0  0  0  0  0  0  0  0  0  0  0
 ITRead=  0  0  0  0  0  0  0  0  0  0  0  0  0  0  0  0  0  0  0  0
 ITRead=  0  0  0  0  0  0  0  0  0  0  0  0  0  0  0  0  0  0  0  0
 ITRead=  0  0  0  0  0  0  0  0  0  0  0  0
 MicOpt= -1 -1 -1 -1 -1 -1 -1 -1 -1 -1 -1 -1 -1 -1 -1 -1 -1 -1 -1 -1
 MicOpt= -1 -1 -1 -1 -1 -1 -1 -1 -1 -1 -1 -1 -1 -1 -1 -1 -1 -1 -1 -1
 MicOpt= -1 -1 -1 -1 -1 -1 -1 -1 -1 -1 -1 -1 -1 -1 -1 -1 -1 -1 -1 -1
 MicOpt= -1 -1 -1 -1 -1 -1 -1 -1 -1 -1 -1 -1
 NAtoms=     72 NQM=       72 NQMF=       0 NMMI=      0 NMMIF=      0
                NMic=       0 NMicF=      0.
                    Isotopes and Nuclear Properties:
 (Nuclear quadrupole moments (NQMom) in fm**2, nuclear magnetic moments (NMagM)
  in nuclear magnetons)

  Atom         1           2           3           4           5           6           7           8           9          10
 IAtWgt=          12          12          12          12          12          12          12          12          12          12
 AtmWgt=  12.0000000  12.0000000  12.0000000  12.0000000  12.0000000  12.0000000  12.0000000  12.0000000  12.0000000  12.0000000
 NucSpn=           0           0           0           0           0           0           0           0           0           0
 AtZEff=   0.0000000   0.0000000   0.0000000   0.0000000   0.0000000   0.0000000   0.0000000   0.0000000   0.0000000   0.0000000
 NQMom=    0.0000000   0.0000000   0.0000000   0.0000000   0.0000000   0.0000000   0.0000000   0.0000000   0.0000000   0.0000000
 NMagM=    0.0000000   0.0000000   0.0000000   0.0000000   0.0000000   0.0000000   0.0000000   0.0000000   0.0000000   0.0000000
 AtZNuc=   6.0000000   6.0000000   6.0000000   6.0000000   6.0000000   6.0000000   6.0000000   6.0000000   6.0000000   6.0000000

  Atom        11          12          13          14          15          16          17          18          19          20
 IAtWgt=           1           1           1           1           1           1          12          12          12          12
 AtmWgt=   1.0078250   1.0078250   1.0078250   1.0078250   1.0078250   1.0078250  12.0000000  12.0000000  12.0000000  12.0000000
 NucSpn=           1           1           1           1           1           1           0           0           0           0
 AtZEff=   0.0000000   0.0000000   0.0000000   0.0000000   0.0000000   0.0000000   0.0000000   0.0000000   0.0000000   0.0000000
 NQMom=    0.0000000   0.0000000   0.0000000   0.0000000   0.0000000   0.0000000   0.0000000   0.0000000   0.0000000   0.0000000
 NMagM=    2.7928460   2.7928460   2.7928460   2.7928460   2.7928460   2.7928460   0.0000000   0.0000000   0.0000000   0.0000000
 AtZNuc=   1.0000000   1.0000000   1.0000000   1.0000000   1.0000000   1.0000000   6.0000000   6.0000000   6.0000000   6.0000000

  Atom        21          22          23          24          25          26          27          28          29          30
 IAtWgt=           1           1          12          12          12          12           1           1          12          12
 AtmWgt=   1.0078250   1.0078250  12.0000000  12.0000000  12.0000000  12.0000000   1.0078250   1.0078250  12.0000000  12.0000000
 NucSpn=           1           1           0           0           0           0           1           1           0           0
 AtZEff=   0.0000000   0.0000000   0.0000000   0.0000000   0.0000000   0.0000000   0.0000000   0.0000000   0.0000000   0.0000000
 NQMom=    0.0000000   0.0000000   0.0000000   0.0000000   0.0000000   0.0000000   0.0000000   0.0000000   0.0000000   0.0000000
 NMagM=    2.7928460   2.7928460   0.0000000   0.0000000   0.0000000   0.0000000   2.7928460   2.7928460   0.0000000   0.0000000
 AtZNuc=   1.0000000   1.0000000   6.0000000   6.0000000   6.0000000   6.0000000   1.0000000   1.0000000   6.0000000   6.0000000

  Atom        31          32          33          34          35          36          37          38          39          40
 IAtWgt=          12          12           1           1           1           1          12          12          12          12
 AtmWgt=  12.0000000  12.0000000   1.0078250   1.0078250   1.0078250   1.0078250  12.0000000  12.0000000  12.0000000  12.0000000
 NucSpn=           0           0           1           1           1           1           0           0           0           0
 AtZEff=   0.0000000   0.0000000   0.0000000   0.0000000   0.0000000   0.0000000   0.0000000   0.0000000   0.0000000   0.0000000
 NQMom=    0.0000000   0.0000000   0.0000000   0.0000000   0.0000000   0.0000000   0.0000000   0.0000000   0.0000000   0.0000000
 NMagM=    0.0000000   0.0000000   2.7928460   2.7928460   2.7928460   2.7928460   0.0000000   0.0000000   0.0000000   0.0000000
 AtZNuc=   6.0000000   6.0000000   1.0000000   1.0000000   1.0000000   1.0000000   6.0000000   6.0000000   6.0000000   6.0000000

  Atom        41          42          43          44          45          46          47          48          49          50
 IAtWgt=          12          12          12          12          12          12           1           1           1           1
 AtmWgt=  12.0000000  12.0000000  12.0000000  12.0000000  12.0000000  12.0000000   1.0078250   1.0078250   1.0078250   1.0078250
 NucSpn=           0           0           0           0           0           0           1           1           1           1
 AtZEff=   0.0000000   0.0000000   0.0000000   0.0000000   0.0000000   0.0000000   0.0000000   0.0000000   0.0000000   0.0000000
 NQMom=    0.0000000   0.0000000   0.0000000   0.0000000   0.0000000   0.0000000   0.0000000   0.0000000   0.0000000   0.0000000
 NMagM=    0.0000000   0.0000000   0.0000000   0.0000000   0.0000000   0.0000000   2.7928460   2.7928460   2.7928460   2.7928460
 AtZNuc=   6.0000000   6.0000000   6.0000000   6.0000000   6.0000000   6.0000000   1.0000000   1.0000000   1.0000000   1.0000000

  Atom        51          52          53          54          55          56          57          58          59          60
 IAtWgt=           1           1          12          12          12          12           1           1          12          12
 AtmWgt=   1.0078250   1.0078250  12.0000000  12.0000000  12.0000000  12.0000000   1.0078250   1.0078250  12.0000000  12.0000000
 NucSpn=           1           1           0           0           0           0           1           1           0           0
 AtZEff=   0.0000000   0.0000000   0.0000000   0.0000000   0.0000000   0.0000000   0.0000000   0.0000000   0.0000000   0.0000000
 NQMom=    0.0000000   0.0000000   0.0000000   0.0000000   0.0000000   0.0000000   0.0000000   0.0000000   0.0000000   0.0000000
 NMagM=    2.7928460   2.7928460   0.0000000   0.0000000   0.0000000   0.0000000   2.7928460   2.7928460   0.0000000   0.0000000
 AtZNuc=   1.0000000   1.0000000   6.0000000   6.0000000   6.0000000   6.0000000   1.0000000   1.0000000   6.0000000   6.0000000

  Atom        61          62          63          64          65          66          67          68          69          70
 IAtWgt=          12          12           1           1          12          12          12          12           1           1
 AtmWgt=  12.0000000  12.0000000   1.0078250   1.0078250  12.0000000  12.0000000  12.0000000  12.0000000   1.0078250   1.0078250
 NucSpn=           0           0           1           1           0           0           0           0           1           1
 AtZEff=   0.0000000   0.0000000   0.0000000   0.0000000   0.0000000   0.0000000   0.0000000   0.0000000   0.0000000   0.0000000
 NQMom=    0.0000000   0.0000000   0.0000000   0.0000000   0.0000000   0.0000000   0.0000000   0.0000000   0.0000000   0.0000000
 NMagM=    0.0000000   0.0000000   2.7928460   2.7928460   0.0000000   0.0000000   0.0000000   0.0000000   2.7928460   2.7928460
 AtZNuc=   6.0000000   6.0000000   1.0000000   1.0000000   6.0000000   6.0000000   6.0000000   6.0000000   1.0000000   1.0000000

  Atom        71          72
 IAtWgt=           1           1
 AtmWgt=   1.0078250   1.0078250
 NucSpn=           1           1
 AtZEff=   0.0000000   0.0000000
 NQMom=    0.0000000   0.0000000
 NMagM=    2.7928460   2.7928460
 AtZNuc=   1.0000000   1.0000000
 Leave Link  101 at Wed Sep 27 16:37:45 2023, MaxMem=  3221225472 cpu:               2.6 elap:               0.1
 (Enter /home/center/opt/aarch64/apps/gaussian16/c01/g16/l202.exe)
 Stoichiometry    C44H28
 Framework group  CS[SG(C4H4),X(C40H24)]
 Deg. of freedom   109
 Full point group                 CS      NOp   2
 Largest Abelian subgroup         CS      NOp   2
 Largest concise Abelian subgroup CS      NOp   2
                         Standard orientation:                         
 ---------------------------------------------------------------------
 Center     Atomic      Atomic             Coordinates (Angstroms)
 Number     Number       Type             X           Y           Z
 ---------------------------------------------------------------------
      1          6           0        0.196502   -2.828427    3.671276
      2          6           0       -1.257162   -2.828427    3.671276
      3          6           0        0.878403   -2.828427    4.933593
      4          6           0       -1.939064   -2.828427    4.933593
      5          6           0        0.185716   -2.828427    6.106357
      6          6           0       -1.246377   -2.828427    6.106357
      7          6           0        0.876061   -2.828427    2.463318
      8          6           0        0.197266   -2.828427    1.224029
      9          6           0       -1.936721   -2.828427    2.463317
     10          6           0       -1.257927   -2.828427    1.224029
     11          1           0        1.963432   -2.828427    4.933260
     12          1           0        1.961778   -2.828427    2.463929
     13          1           0       -3.022437   -2.828427    2.463929
     14          1           0       -3.024092   -2.828427    4.933260
     15          1           0       -1.775626   -2.828427    7.052528
     16          1           0        0.714965   -2.828427    7.052528
     17          6           0        0.876556   -2.828427    0.000000
     18          6           0        0.197266   -2.828427   -1.224029
     19          6           0       -1.937216   -2.828427    0.000000
     20          6           0       -1.257927   -2.828427   -1.224029
     21          1           0        1.962179   -2.828427    0.000000
     22          1           0       -3.022837   -2.828427    0.000000
     23          6           0        0.876061   -2.828427   -2.463318
     24          6           0        0.196502   -2.828427   -3.671276
     25          6           0       -1.936721   -2.828427   -2.463317
     26          6           0       -1.257162   -2.828427   -3.671276
     27          1           0        1.961778   -2.828427   -2.463929
     28          1           0       -3.022437   -2.828427   -2.463929
     29          6           0        0.878403   -2.828427   -4.933593
     30          6           0        0.185716   -2.828427   -6.106357
     31          6           0       -1.939064   -2.828427   -4.933593
     32          6           0       -1.246377   -2.828427   -6.106357
     33          1           0        1.963432   -2.828427   -4.933260
     34          1           0        0.714965   -2.828427   -7.052528
     35          1           0       -1.775626   -2.828427   -7.052528
     36          1           0       -3.024092   -2.828427   -4.933260
     37          6           0        0.530330    3.555259    3.671276
     38          6           0        0.530330    2.101595    3.671276
     39          6           0        0.530330    4.237160    4.933593
     40          6           0        0.530330    1.419694    4.933593
     41          6           0        0.530330    3.544474    6.106357
     42          6           0        0.530330    2.112380    6.106357
     43          6           0        0.530330    4.234818    2.463318
     44          6           0        0.530330    3.556024    1.224029
     45          6           0        0.530330    1.422036    2.463317
     46          6           0        0.530330    2.100830    1.224029
     47          1           0        0.530330    5.322189    4.933260
     48          1           0        0.530330    5.320535    2.463929
     49          1           0        0.530330    0.336320    2.463929
     50          1           0        0.530330    0.334665    4.933260
     51          1           0        0.530330    1.583132    7.052528
     52          1           0        0.530330    4.073722    7.052528
     53          6           0        0.530330    4.235313    0.000000
     54          6           0        0.530330    3.556024   -1.224029
     55          6           0        0.530330    1.421541    0.000000
     56          6           0        0.530330    2.100830   -1.224029
     57          1           0        0.530330    5.320936    0.000000
     58          1           0        0.530330    0.335920    0.000000
     59          6           0        0.530330    4.234818   -2.463318
     60          6           0        0.530330    3.555259   -3.671276
     61          6           0        0.530330    1.422036   -2.463317
     62          6           0        0.530330    2.101595   -3.671276
     63          1           0        0.530330    5.320535   -2.463929
     64          1           0        0.530330    0.336320   -2.463929
     65          6           0        0.530330    4.237160   -4.933593
     66          6           0        0.530330    3.544474   -6.106357
     67          6           0        0.530330    1.419694   -4.933593
     68          6           0        0.530330    2.112380   -6.106357
     69          1           0        0.530330    5.322189   -4.933260
     70          1           0        0.530330    4.073722   -7.052528
     71          1           0        0.530330    1.583132   -7.052528
     72          1           0        0.530330    0.334665   -4.933260
 ---------------------------------------------------------------------
 Rotational constants (GHZ):           0.0941095           0.0563744           0.0372399
 Leave Link  202 at Wed Sep 27 16:37:47 2023, MaxMem=  3221225472 cpu:               0.6 elap:               0.0
 (Enter /home/center/opt/aarch64/apps/gaussian16/c01/g16/l122.exe)
 Counterpoise: doing full-system calculation.
 Leave Link  122 at Wed Sep 27 16:37:49 2023, MaxMem=  3221225472 cpu:               0.4 elap:               0.0
 (Enter /home/center/opt/aarch64/apps/gaussian16/c01/g16/l301.exe)
 Standard basis: 6-311G(d,p) (5D, 7F)
 Ernie: Thresh=  0.10000D-02 Tol=  0.10000D-05 Strict=F.
 There are   528 symmetry adapted cartesian basis functions of A'  symmetry.
 There are   476 symmetry adapted cartesian basis functions of A"  symmetry.
 There are   504 symmetry adapted basis functions of A'  symmetry.
 There are   456 symmetry adapted basis functions of A"  symmetry.
   960 basis functions,  1632 primitive gaussians,  1004 cartesian basis functions
   146 alpha electrons      146 beta electrons
       nuclear repulsion energy      4539.0418289353 Hartrees.
 IExCor=  402 DFT=T Ex+Corr=B3LYP ExCW=0 ScaHFX=  0.200000
 ScaDFX=  0.800000  0.720000  1.000000  0.810000 ScalE2=  1.000000  1.000000
 IRadAn=      5 IRanWt=     -1 IRanGd=            0 ICorTp=0 IEmpDi=131
 NAtoms=   72 NActive=   72 NUniq=   40 SFac= 3.24D+00 NAtFMM=   60 NAOKFM=T Big=F
 Integral buffers will be    131072 words long.
 Raffenetti 2 integral format.
 Two-electron integral symmetry is turned on.
 R6Disp:  Grimme-D3 Dispersion energy=       -0.0737793469 Hartrees.
 Nuclear repulsion after empirical dispersion term =     4538.9680495884 Hartrees.
 Leave Link  301 at Wed Sep 27 16:37:52 2023, MaxMem=  3221225472 cpu:               2.0 elap:               0.1
 (Enter /home/center/opt/aarch64/apps/gaussian16/c01/g16/l302.exe)
 NPDir=0 NMtPBC=     1 NCelOv=     1 NCel=       1 NClECP=     1 NCelD=      1
         NCelK=      1 NCelE2=     1 NClLst=     1 CellRange=     0.0.
 One-electron integrals computed using PRISM.
 One-electron integral symmetry used in STVInt
 NBasis=   960 RedAO= T EigKep=  3.86D-05  NBF=   504   456
 NBsUse=   960 1.00D-06 EigRej= -1.00D+00 NBFU=   504   456
 Precomputing XC quadrature grid using
 IXCGrd= 4 IRadAn=           5 IRanWt=          -1 IRanGd=           0 AccXCQ= 0.00D+00.
 Generated NRdTot=       0 NPtTot=           0 NUsed=           0 NTot=          32
 NSgBfM=   989   989   989   989   989 MxSgAt=    72 MxSgA2=    72.
 Leave Link  302 at Wed Sep 27 16:37:56 2023, MaxMem=  3221225472 cpu:              63.9 elap:               1.9
 (Enter /home/center/opt/aarch64/apps/gaussian16/c01/g16/l303.exe)
 DipDrv:  MaxL=1.
 Leave Link  303 at Wed Sep 27 16:37:59 2023, MaxMem=  3221225472 cpu:              14.2 elap:               0.4
 (Enter /home/center/opt/aarch64/apps/gaussian16/c01/g16/l401.exe)
 ExpMin= 1.03D-01 ExpMax= 4.56D+03 ExpMxC= 6.82D+02 IAcc=3 IRadAn=         5 AccDes= 0.00D+00
 Harris functional with IExCor=  402 and IRadAn=       5 diagonalized for initial guess.
 HarFok:  IExCor=  402 AccDes= 0.00D+00 IRadAn=         5 IDoV= 1 UseB2=F ITyADJ=14
 ICtDFT=  3500011 ScaDFX=  1.000000  1.000000  1.000000  1.000000
 FoFCou: FMM=F IPFlag=           0 FMFlag=      100000 FMFlg1=        2000
         NFxFlg=           0 DoJE=T BraDBF=F KetDBF=T FulRan=T
         wScrn=  0.000000 ICntrl=       500 IOpCl=  0 I1Cent=   200000004 NGrid=           0
         NMat0=    1 NMatS0=      1 NMatT0=    0 NMatD0=    1 NMtDS0=    0 NMtDT0=    0
 Petite list used in FoFCou.
 Harris En= -1694.13729929878    
 JPrj=0 DoOrth=F DoCkMO=F.
 Initial guess orbital symmetries:
       Occupied  (A") (A') (A") (A') (A') (A") (A') (A") (A") (A')
                 (A") (A') (A") (A') (A") (A') (A") (A') (A') (A")
                 (A") (A') (A") (A') (A') (A') (A') (A') (A") (A')
                 (A") (A') (A") (A') (A") (A') (A") (A') (A") (A')
                 (A') (A") (A') (A") (A') (A') (A") (A") (A') (A')
                 (A") (A") (A') (A') (A') (A') (A") (A") (A') (A')
                 (A") (A") (A") (A") (A') (A') (A') (A') (A") (A")
                 (A") (A") (A') (A') (A") (A") (A') (A') (A') (A')
                 (A') (A') (A") (A") (A") (A") (A") (A") (A') (A')
                 (A') (A') (A") (A") (A') (A') (A') (A') (A") (A")
                 (A') (A') (A") (A") (A") (A") (A') (A') (A') (A')
                 (A") (A") (A') (A') (A") (A") (A') (A') (A") (A")
                 (A") (A") (A') (A') (A') (A') (A") (A") (A') (A')
                 (A") (A") (A') (A') (A") (A") (A') (A') (A') (A')
                 (A") (A") (A") (A") (A') (A')
       Virtual   (A') (A') (A") (A") (A") (A") (A') (A') (A') (A')
                 (A") (A") (A') (A') (A") (A") (A') (A") (A') (A')
                 (A') (A') (A") (A') (A') (A") (A") (A') (A") (A")
                 (A') (A") (A') (A") (A') (A') (A") (A") (A") (A')
                 (A') (A") (A') (A") (A') (A') (A") (A') (A') (A')
                 (A') (A') (A") (A") (A') (A') (A") (A') (A") (A')
                 (A") (A") (A") (A") (A') (A') (A") (A') (A") (A")
                 (A') (A") (A') (A') (A") (A') (A") (A") (A') (A")
                 (A') (A') (A') (A') (A") (A') (A') (A") (A") (A')
                 (A") (A') (A") (A") (A') (A') (A") (A') (A") (A")
                 (A") (A') (A") (A') (A") (A') (A") (A') (A') (A')
                 (A') (A') (A") (A') (A') (A') (A") (A") (A') (A")
                 (A') (A") (A") (A') (A") (A') (A") (A') (A") (A")
                 (A') (A") (A') (A") (A") (A") (A') (A') (A") (A')
                 (A") (A') (A') (A') (A') (A') (A") (A') (A') (A')
                 (A") (A") (A') (A") (A') (A") (A") (A') (A') (A")
                 (A') (A") (A") (A') (A") (A') (A") (A') (A") (A')
                 (A") (A') (A") (A') (A") (A') (A') (A") (A') (A")
                 (A') (A") (A") (A') (A') (A") (A') (A') (A') (A')
                 (A") (A') (A") (A") (A') (A") (A') (A') (A") (A")
                 (A") (A') (A') (A') (A") (A') (A") (A') (A') (A")
                 (A") (A') (A') (A") (A') (A") (A") (A") (A") (A')
                 (A') (A") (A") (A') (A") (A') (A") (A') (A') (A")
                 (A') (A') (A') (A") (A') (A") (A') (A") (A") (A')
                 (A") (A") (A') (A') (A') (A') (A") (A") (A') (A')
                 (A") (A") (A") (A") (A') (A') (A') (A") (A") (A')
                 (A') (A') (A') (A") (A") (A") (A") (A') (A') (A")
                 (A") (A') (A") (A") (A') (A") (A') (A') (A") (A')
                 (A") (A") (A') (A') (A') (A') (A") (A') (A") (A")
                 (A') (A') (A') (A") (A") (A') (A") (A") (A") (A")
                 (A') (A") (A') (A') (A") (A') (A') (A') (A') (A")
                 (A") (A") (A') (A") (A") (A') (A") (A') (A') (A')
                 (A") (A') (A") (A') (A') (A') (A") (A") (A") (A')
                 (A") (A") (A') (A") (A') (A') (A") (A') (A") (A')
                 (A") (A') (A') (A") (A") (A') (A") (A') (A") (A')
                 (A') (A') (A") (A') (A") (A') (A') (A") (A') (A")
                 (A') (A') (A') (A') (A") (A") (A") (A") (A") (A")
                 (A") (A") (A') (A') (A") (A") (A') (A') (A') (A')
                 (A") (A") (A') (A') (A') (A') (A') (A") (A') (A")
                 (A') (A") (A') (A') (A") (A') (A") (A") (A") (A')
                 (A") (A') (A") (A') (A") (A') (A') (A") (A") (A')
                 (A') (A") (A') (A') (A') (A") (A") (A') (A") (A')
                 (A') (A') (A') (A") (A") (A') (A") (A') (A") (A')
                 (A") (A") (A") (A') (A") (A') (A") (A') (A") (A")
                 (A') (A") (A') (A") (A') (A") (A') (A") (A') (A")
                 (A') (A') (A') (A") (A') (A') (A") (A') (A") (A")
                 (A") (A') (A") (A') (A') (A") (A") (A') (A") (A")
                 (A') (A') (A") (A') (A") (A') (A") (A") (A') (A')
                 (A") (A') (A') (A') (A") (A') (A") (A") (A") (A')
                 (A") (A') (A") (A") (A") (A") (A") (A") (A') (A')
                 (A') (A") (A') (A') (A") (A') (A') (A') (A') (A")
                 (A") (A') (A') (A') (A") (A") (A") (A") (A') (A')
                 (A") (A') (A") (A') (A") (A") (A') (A') (A") (A')
                 (A") (A') (A') (A') (A") (A") (A') (A") (A") (A')
                 (A") (A") (A') (A') (A') (A') (A") (A") (A") (A")
                 (A') (A") (A') (A") (A') (A") (A") (A') (A') (A')
                 (A') (A") (A") (A') (A') (A") (A") (A') (A') (A")
                 (A") (A') (A") (A") (A') (A') (A') (A") (A') (A")
                 (A') (A') (A') (A") (A') (A") (A") (A') (A") (A')
                 (A') (A') (A') (A") (A') (A') (A') (A") (A") (A')
                 (A") (A") (A") (A') (A") (A') (A") (A") (A') (A')
                 (A") (A") (A') (A') (A') (A") (A') (A") (A') (A")
                 (A') (A") (A") (A') (A") (A') (A") (A') (A") (A')
                 (A') (A') (A') (A") (A') (A") (A') (A") (A') (A')
                 (A") (A") (A') (A") (A") (A") (A") (A') (A") (A')
                 (A") (A') (A') (A') (A') (A') (A') (A") (A") (A')
                 (A') (A") (A") (A') (A") (A") (A') (A') (A') (A')
                 (A") (A") (A') (A") (A") (A') (A") (A") (A') (A')
                 (A") (A') (A') (A") (A') (A") (A') (A") (A") (A")
                 (A') (A') (A") (A') (A') (A') (A") (A") (A") (A')
                 (A') (A') (A") (A") (A') (A") (A') (A") (A') (A")
                 (A") (A') (A") (A") (A') (A') (A') (A') (A") (A")
                 (A') (A') (A") (A") (A') (A') (A") (A') (A') (A")
                 (A') (A") (A') (A") (A") (A') (A") (A') (A') (A")
                 (A') (A") (A') (A') (A") (A") (A') (A') (A') (A')
                 (A") (A') (A") (A') (A") (A") (A') (A') (A") (A")
                 (A") (A") (A') (A') (A") (A") (A') (A") (A') (A")
                 (A') (A') (A") (A") (A') (A') (A') (A') (A") (A")
                 (A") (A") (A') (A') (A") (A") (A') (A') (A') (A')
                 (A") (A") (A") (A") (A') (A') (A') (A') (A") (A")
                 (A') (A') (A") (A") (A') (A') (A") (A') (A") (A')
                 (A') (A") (A') (A")
 The electronic state of the initial guess is 1-A'.
 Leave Link  401 at Wed Sep 27 16:38:04 2023, MaxMem=  3221225472 cpu:              97.6 elap:               2.6
 (Enter /home/center/opt/aarch64/apps/gaussian16/c01/g16/l502.exe)
 Integral symmetry usage will be decided dynamically.
 Closed shell SCF:
 Using DIIS extrapolation, IDIIS=  1040.
 NGot=  3221225472 LenX=  3219153746 LenY=  3218144726
 Requested convergence on RMS density matrix=1.00D-08 within 128 cycles.
 Requested convergence on MAX density matrix=1.00D-06.
 Requested convergence on             energy=1.00D-06.
 No special actions if energy rises.
 Fock matrices will be formed incrementally for  20 cycles.
 Integral accuracy reduced to 1.0D-05 until final iterations.

 Cycle   1  Pass 0  IDiag  1:
 FoFJK:  IHMeth= 1 ICntrl=       0 DoSepK=F KAlg= 0 I1Cent=           0 FoldK=F
 IRaf= 540000000 NMat=       1 IRICut=       1 DoRegI=T DoRafI=F ISym2E= 1 IDoP0=0 IntGTp=1.
 FoFCou: FMM=F IPFlag=           0 FMFlag=      100000 FMFlg1=        2000
         NFxFlg=           0 DoJE=F BraDBF=F KetDBF=F FulRan=T
         wScrn=  0.000000 ICntrl=         0 IOpCl=  0 I1Cent=           0 NGrid=           0
         NMat0=    1 NMatS0=      1 NMatT0=    0 NMatD0=    1 NMtDS0=    0 NMtDT0=    0
 Petite list used in FoFCou.
 E= -1693.16245311485    
 DIIS: error= 4.52D-02 at cycle   1 NSaved=   1.
 NSaved= 1 IEnMin= 1 EnMin= -1693.16245311485     IErMin= 1 ErrMin= 4.52D-02
 ErrMax= 4.52D-02  0.00D+00 EMaxC= 1.00D-01 BMatC= 9.03D-01 BMatP= 9.03D-01
 IDIUse=3 WtCom= 5.48D-01 WtEn= 4.52D-01
 Coeff-Com:  0.100D+01
 Coeff-En:   0.100D+01
 Coeff:      0.100D+01
 Gap=     0.068 Goal=   None    Shift=    0.000
 GapD=    0.068 DampG=0.500 DampE=0.500 DampFc=0.2500 IDamp=-1.
 Damping current iteration by 2.50D-01
 RMSDP=1.73D-03 MaxDP=8.41D-02              OVMax= 1.57D-01

 Cycle   2  Pass 0  IDiag  1:
 RMSU=  4.17D-04    CP:  9.82D-01
 E= -1693.47372273401     Delta-E=       -0.311269619159 Rises=F Damp=T
 DIIS: error= 2.62D-02 at cycle   2 NSaved=   2.
 NSaved= 2 IEnMin= 2 EnMin= -1693.47372273401     IErMin= 2 ErrMin= 2.62D-02
 ErrMax= 2.62D-02  0.00D+00 EMaxC= 1.00D-01 BMatC= 2.99D-01 BMatP= 9.03D-01
 IDIUse=3 WtCom= 7.38D-01 WtEn= 2.62D-01
 Coeff-Com: -0.121D+01 0.221D+01
 Coeff-En:   0.000D+00 0.100D+01
 Coeff:     -0.889D+00 0.189D+01
 Gap=     0.067 Goal=   None    Shift=    0.000
 RMSDP=7.12D-04 MaxDP=3.32D-02 DE=-3.11D-01 OVMax= 8.02D-02

 Cycle   3  Pass 0  IDiag  1:
 RMSU=  4.49D-04    CP:  9.56D-01  2.27D+00
 E= -1694.04319535256     Delta-E=       -0.569472618551 Rises=F Damp=F
 DIIS: error= 4.69D-03 at cycle   3 NSaved=   3.
 NSaved= 3 IEnMin= 3 EnMin= -1694.04319535256     IErMin= 3 ErrMin= 4.69D-03
 ErrMax= 4.69D-03  0.00D+00 EMaxC= 1.00D-01 BMatC= 1.13D-02 BMatP= 2.99D-01
 IDIUse=3 WtCom= 9.53D-01 WtEn= 4.69D-02
 Coeff-Com: -0.240D+00 0.499D+00 0.741D+00
 Coeff-En:   0.000D+00 0.000D+00 0.100D+01
 Coeff:     -0.229D+00 0.476D+00 0.753D+00
 Gap=     0.071 Goal=   None    Shift=    0.000
 RMSDP=2.27D-04 MaxDP=1.22D-02 DE=-5.69D-01 OVMax= 8.32D-02

 Cycle   4  Pass 0  IDiag  1:
 RMSU=  1.99D-04    CP:  9.57D-01  2.17D+00  7.73D-01
 E= -1694.03931585253     Delta-E=        0.003879500028 Rises=F Damp=F
 DIIS: error= 7.06D-03 at cycle   4 NSaved=   4.
 NSaved= 4 IEnMin= 3 EnMin= -1694.04319535256     IErMin= 3 ErrMin= 4.69D-03
 ErrMax= 7.06D-03  0.00D+00 EMaxC= 1.00D-01 BMatC= 1.30D-02 BMatP= 1.13D-02
 IDIUse=3 WtCom= 1.06D-01 WtEn= 8.94D-01
 Coeff-Com: -0.358D-01 0.104D+00 0.524D+00 0.408D+00
 Coeff-En:   0.000D+00 0.000D+00 0.560D+00 0.440D+00
 Coeff:     -0.380D-02 0.110D-01 0.556D+00 0.437D+00
 Gap=     0.068 Goal=   None    Shift=    0.000
 RMSDP=1.40D-04 MaxDP=8.34D-03 DE= 3.88D-03 OVMax= 6.92D-02

 Cycle   5  Pass 0  IDiag  1:
 RMSU=  7.96D-05    CP:  9.57D-01  2.16D+00  8.42D-01  4.40D-01
 E= -1694.05375052510     Delta-E=       -0.014434672566 Rises=F Damp=F
 DIIS: error= 1.67D-03 at cycle   5 NSaved=   5.
 NSaved= 5 IEnMin= 5 EnMin= -1694.05375052510     IErMin= 5 ErrMin= 1.67D-03
 ErrMax= 1.67D-03  0.00D+00 EMaxC= 1.00D-01 BMatC= 1.04D-03 BMatP= 1.13D-02
 IDIUse=3 WtCom= 9.83D-01 WtEn= 1.67D-02
 Coeff-Com: -0.163D-01 0.343D-01 0.241D+00 0.248D+00 0.493D+00
 Coeff-En:   0.000D+00 0.000D+00 0.000D+00 0.395D-01 0.961D+00
 Coeff:     -0.160D-01 0.337D-01 0.237D+00 0.245D+00 0.500D+00
 Gap=     0.068 Goal=   None    Shift=    0.000
 RMSDP=4.64D-05 MaxDP=2.52D-03 DE=-1.44D-02 OVMax= 2.43D-02

 Cycle   6  Pass 0  IDiag  1:
 RMSU=  2.35D-05    CP:  9.57D-01  2.19D+00  8.48D-01  5.30D-01  5.67D-01
 E= -1694.05471404848     Delta-E=       -0.000963523384 Rises=F Damp=F
 DIIS: error= 8.08D-04 at cycle   6 NSaved=   6.
 NSaved= 6 IEnMin= 6 EnMin= -1694.05471404848     IErMin= 6 ErrMin= 8.08D-04
 ErrMax= 8.08D-04  0.00D+00 EMaxC= 1.00D-01 BMatC= 2.26D-04 BMatP= 1.04D-03
 IDIUse=3 WtCom= 9.92D-01 WtEn= 8.08D-03
 Coeff-Com: -0.593D-02 0.879D-02 0.988D-01 0.120D+00 0.360D+00 0.419D+00
 Coeff-En:   0.000D+00 0.000D+00 0.000D+00 0.000D+00 0.183D+00 0.817D+00
 Coeff:     -0.589D-02 0.872D-02 0.980D-01 0.119D+00 0.358D+00 0.422D+00
 Gap=     0.068 Goal=   None    Shift=    0.000
 RMSDP=1.91D-05 MaxDP=1.19D-03 DE=-9.64D-04 OVMax= 9.72D-03

 Cycle   7  Pass 0  IDiag  1:
 RMSU=  7.90D-06    CP:  9.57D-01  2.19D+00  8.49D-01  5.10D-01  6.31D-01
                    CP:  3.15D-01
 E= -1694.05496611030     Delta-E=       -0.000252061818 Rises=F Damp=F
 DIIS: error= 2.91D-04 at cycle   7 NSaved=   7.
 NSaved= 7 IEnMin= 7 EnMin= -1694.05496611030     IErMin= 7 ErrMin= 2.91D-04
 ErrMax= 2.91D-04  0.00D+00 EMaxC= 1.00D-01 BMatC= 1.85D-05 BMatP= 2.26D-04
 IDIUse=3 WtCom= 9.97D-01 WtEn= 2.91D-03
 Coeff-Com: -0.231D-02 0.277D-02 0.528D-01 0.655D-01 0.212D+00 0.291D+00
 Coeff-Com:  0.378D+00
 Coeff-En:   0.000D+00 0.000D+00 0.000D+00 0.000D+00 0.000D+00 0.320D-01
 Coeff-En:   0.968D+00
 Coeff:     -0.230D-02 0.276D-02 0.527D-01 0.653D-01 0.212D+00 0.290D+00
 Coeff:      0.380D+00
 Gap=     0.068 Goal=   None    Shift=    0.000
 RMSDP=5.26D-06 MaxDP=2.59D-04 DE=-2.52D-04 OVMax= 1.99D-03

 Initial convergence to 1.0D-05 achieved.  Increase integral accuracy.
 Cycle   8  Pass 1  IDiag  1:
 E= -1694.05463357280     Delta-E=        0.000332537501 Rises=F Damp=F
 DIIS: error= 1.12D-03 at cycle   1 NSaved=   1.
 NSaved= 1 IEnMin= 1 EnMin= -1694.05463357280     IErMin= 1 ErrMin= 1.12D-03
 ErrMax= 1.12D-03  0.00D+00 EMaxC= 1.00D-01 BMatC= 5.14D-05 BMatP= 5.14D-05
 IDIUse=3 WtCom= 9.89D-01 WtEn= 1.12D-02
 Coeff-Com:  0.100D+01
 Coeff-En:   0.100D+01
 Coeff:      0.100D+01
 Gap=     0.068 Goal=   None    Shift=    0.000
 RMSDP=5.26D-06 MaxDP=2.59D-04 DE= 3.33D-04 OVMax= 2.27D-03

 Cycle   9  Pass 1  IDiag  1:
 RMSU=  4.00D-04    CP:  9.97D-01
 E= -1694.05468553812     Delta-E=       -0.000051965323 Rises=F Damp=F
 DIIS: error= 8.28D-05 at cycle   2 NSaved=   2.
 NSaved= 2 IEnMin= 2 EnMin= -1694.05468553812     IErMin= 2 ErrMin= 8.28D-05
 ErrMax= 8.28D-05  0.00D+00 EMaxC= 1.00D-01 BMatC= 2.27D-06 BMatP= 5.14D-05
 IDIUse=1 WtCom= 1.00D+00 WtEn= 0.00D+00
 Coeff-Com:  0.527D-01 0.947D+00
 Coeff:      0.527D-01 0.947D+00
 Gap=     0.068 Goal=   None    Shift=    0.000
 RMSDP=6.72D-06 MaxDP=3.52D-04 DE=-5.20D-05 OVMax= 2.76D-03

 Cycle  10  Pass 1  IDiag  1:
 RMSU=  5.18D-06    CP:  9.97D-01  1.01D+00
 E= -1694.05467474672     Delta-E=        0.000010791397 Rises=F Damp=F
 DIIS: error= 2.19D-04 at cycle   3 NSaved=   3.
 NSaved= 3 IEnMin= 2 EnMin= -1694.05468553812     IErMin= 2 ErrMin= 8.28D-05
 ErrMax= 2.19D-04  0.00D+00 EMaxC= 1.00D-01 BMatC= 1.10D-05 BMatP= 2.27D-06
 IDIUse=3 WtCom= 4.03D-01 WtEn= 5.97D-01
 Coeff-Com: -0.351D-02 0.692D+00 0.312D+00
 Coeff-En:   0.000D+00 0.775D+00 0.225D+00
 Coeff:     -0.141D-02 0.742D+00 0.260D+00
 Gap=     0.068 Goal=   None    Shift=    0.000
 RMSDP=3.15D-06 MaxDP=2.22D-04 DE= 1.08D-05 OVMax= 1.94D-03

 Cycle  11  Pass 1  IDiag  1:
 RMSU=  1.04D-06    CP:  9.97D-01  1.01D+00  4.27D-01
 E= -1694.05468778043     Delta-E=       -0.000013033702 Rises=F Damp=F
 DIIS: error= 3.46D-05 at cycle   4 NSaved=   4.
 NSaved= 4 IEnMin= 4 EnMin= -1694.05468778043     IErMin= 4 ErrMin= 3.46D-05
 ErrMax= 3.46D-05  0.00D+00 EMaxC= 1.00D-01 BMatC= 3.58D-07 BMatP= 2.27D-06
 IDIUse=1 WtCom= 1.00D+00 WtEn= 0.00D+00
 Coeff-Com: -0.397D-02 0.450D+00 0.145D+00 0.410D+00
 Coeff:     -0.397D-02 0.450D+00 0.145D+00 0.410D+00
 Gap=     0.068 Goal=   None    Shift=    0.000
 RMSDP=5.93D-07 MaxDP=2.99D-05 DE=-1.30D-05 OVMax= 1.41D-04

 Cycle  12  Pass 1  IDiag  1:
 RMSU=  3.96D-07    CP:  9.97D-01  1.01D+00  3.46D-01  8.81D-01
 E= -1694.05468814599     Delta-E=       -0.000000365565 Rises=F Damp=F
 DIIS: error= 4.65D-06 at cycle   5 NSaved=   5.
 NSaved= 5 IEnMin= 5 EnMin= -1694.05468814599     IErMin= 5 ErrMin= 4.65D-06
 ErrMax= 4.65D-06  0.00D+00 EMaxC= 1.00D-01 BMatC= 3.87D-09 BMatP= 3.58D-07
 IDIUse=1 WtCom= 1.00D+00 WtEn= 0.00D+00
 Coeff-Com: -0.234D-02 0.258D+00 0.816D-01 0.249D+00 0.414D+00
 Coeff:     -0.234D-02 0.258D+00 0.816D-01 0.249D+00 0.414D+00
 Gap=     0.068 Goal=   None    Shift=    0.000
 RMSDP=9.17D-08 MaxDP=4.81D-06 DE=-3.66D-07 OVMax= 4.40D-05

 Cycle  13  Pass 1  IDiag  1:
 RMSU=  8.34D-08    CP:  9.97D-01  1.01D+00  3.48D-01  8.91D-01  9.14D-01
 E= -1694.05468815039     Delta-E=       -0.000000004396 Rises=F Damp=F
 DIIS: error= 1.55D-06 at cycle   6 NSaved=   6.
 NSaved= 6 IEnMin= 6 EnMin= -1694.05468815039     IErMin= 6 ErrMin= 1.55D-06
 ErrMax= 1.55D-06  0.00D+00 EMaxC= 1.00D-01 BMatC= 6.03D-10 BMatP= 3.87D-09
 IDIUse=1 WtCom= 1.00D+00 WtEn= 0.00D+00
 Coeff-Com: -0.846D-03 0.906D-01 0.285D-01 0.920D-01 0.281D+00 0.509D+00
 Coeff:     -0.846D-03 0.906D-01 0.285D-01 0.920D-01 0.281D+00 0.509D+00
 Gap=     0.068 Goal=   None    Shift=    0.000
 RMSDP=3.05D-08 MaxDP=1.81D-06 DE=-4.40D-09 OVMax= 1.59D-05

 Cycle  14  Pass 1  IDiag  1:
 RMSU=  2.12D-08    CP:  9.97D-01  1.01D+00  3.49D-01  8.88D-01  9.43D-01
                    CP:  8.02D-01
 E= -1694.05468815103     Delta-E=       -0.000000000645 Rises=F Damp=F
 DIIS: error= 6.01D-07 at cycle   7 NSaved=   7.
 NSaved= 7 IEnMin= 7 EnMin= -1694.05468815103     IErMin= 7 ErrMin= 6.01D-07
 ErrMax= 6.01D-07  0.00D+00 EMaxC= 1.00D-01 BMatC= 4.67D-11 BMatP= 6.03D-10
 IDIUse=1 WtCom= 1.00D+00 WtEn= 0.00D+00
 Coeff-Com: -0.336D-03 0.355D-01 0.109D-01 0.377D-01 0.134D+00 0.298D+00
 Coeff-Com:  0.485D+00
 Coeff:     -0.336D-03 0.355D-01 0.109D-01 0.377D-01 0.134D+00 0.298D+00
 Coeff:      0.485D+00
 Gap=     0.068 Goal=   None    Shift=    0.000
 RMSDP=1.29D-08 MaxDP=1.00D-06 DE=-6.45D-10 OVMax= 8.75D-06

 Cycle  15  Pass 1  IDiag  1:
 RMSU=  9.20D-09    CP:  9.97D-01  1.01D+00  3.49D-01  8.90D-01  9.43D-01
                    CP:  8.20D-01  6.07D-01
 E= -1694.05468815105     Delta-E=       -0.000000000022 Rises=F Damp=F
 DIIS: error= 4.68D-07 at cycle   8 NSaved=   8.
 NSaved= 8 IEnMin= 8 EnMin= -1694.05468815105     IErMin= 8 ErrMin= 4.68D-07
 ErrMax= 4.68D-07  0.00D+00 EMaxC= 1.00D-01 BMatC= 2.38D-11 BMatP= 4.67D-11
 IDIUse=1 WtCom= 1.00D+00 WtEn= 0.00D+00
 Coeff-Com:  0.657D-05-0.119D-02-0.814D-03 0.939D-03 0.206D-01 0.886D-01
 Coeff-Com:  0.413D+00 0.478D+00
 Coeff:      0.657D-05-0.119D-02-0.814D-03 0.939D-03 0.206D-01 0.886D-01
 Coeff:      0.413D+00 0.478D+00
 Gap=     0.068 Goal=   None    Shift=    0.000
 RMSDP=6.02D-09 MaxDP=4.53D-07 DE=-2.18D-11 OVMax= 4.34D-06

 SCF Done:  E(RB3LYP) =  -1694.05468815     A.U. after   15 cycles
            NFock= 15  Conv=0.60D-08     -V/T= 2.0044
 KE= 1.686675891922D+03 PE=-1.300836373693D+04 EE= 5.088665107272D+03
 Leave Link  502 at Wed Sep 27 16:39:46 2023, MaxMem=  3221225472 cpu:            3581.5 elap:             100.1
 (Enter /home/center/opt/aarch64/apps/gaussian16/c01/g16/l601.exe)
 Copying SCF densities to generalized density rwf, IOpCl= 0 IROHF=0.

 **********************************************************************

            Population analysis using the SCF Density.

 **********************************************************************

 Orbital symmetries:
       Occupied  (A") (A') (A') (A") (A") (A') (A") (A') (A') (A')
                 (A') (A") (A") (A') (A") (A') (A") (A') (A") (A')
                 (A") (A') (A") (A') (A") (A') (A') (A") (A") (A')
                 (A") (A') (A') (A") (A') (A') (A") (A') (A") (A')
                 (A") (A') (A") (A') (A') (A') (A") (A") (A') (A')
                 (A") (A") (A') (A') (A') (A") (A') (A") (A') (A')
                 (A") (A") (A") (A") (A') (A') (A') (A') (A") (A")
                 (A") (A") (A') (A") (A') (A') (A") (A') (A') (A')
                 (A') (A") (A") (A') (A") (A") (A') (A") (A') (A")
                 (A') (A') (A') (A") (A") (A') (A") (A") (A') (A')
                 (A') (A") (A') (A') (A') (A') (A") (A") (A') (A")
                 (A') (A') (A") (A") (A") (A") (A") (A") (A') (A')
                 (A') (A') (A') (A') (A") (A") (A') (A") (A") (A")
                 (A') (A") (A') (A') (A") (A') (A") (A') (A') (A')
                 (A") (A") (A") (A") (A') (A')
       Virtual   (A') (A') (A") (A") (A") (A") (A') (A') (A') (A")
                 (A') (A') (A") (A') (A") (A') (A') (A') (A") (A")
                 (A') (A') (A") (A") (A') (A") (A') (A') (A") (A")
                 (A") (A') (A') (A") (A') (A") (A") (A') (A") (A')
                 (A') (A') (A") (A') (A") (A') (A") (A') (A") (A')
                 (A") (A') (A') (A') (A') (A') (A') (A") (A') (A")
                 (A") (A") (A") (A") (A') (A') (A") (A") (A") (A')
                 (A') (A') (A") (A') (A") (A') (A") (A') (A") (A")
                 (A') (A') (A') (A') (A') (A") (A') (A") (A') (A")
                 (A") (A') (A") (A') (A') (A") (A') (A") (A") (A")
                 (A') (A") (A') (A') (A') (A") (A') (A") (A') (A")
                 (A") (A') (A') (A") (A') (A") (A") (A") (A') (A')
                 (A') (A') (A") (A') (A') (A") (A') (A') (A') (A")
                 (A') (A") (A") (A") (A') (A') (A') (A') (A") (A')
                 (A') (A") (A") (A') (A") (A') (A") (A") (A') (A")
                 (A') (A") (A") (A') (A") (A') (A') (A") (A') (A")
                 (A') (A") (A') (A') (A") (A") (A') (A") (A") (A')
                 (A") (A') (A") (A') (A') (A') (A') (A') (A") (A")
                 (A") (A') (A') (A") (A') (A") (A') (A") (A") (A')
                 (A") (A') (A") (A") (A') (A") (A') (A') (A") (A')
                 (A') (A") (A') (A") (A') (A') (A") (A') (A") (A')
                 (A") (A') (A") (A') (A") (A') (A") (A') (A") (A")
                 (A') (A") (A') (A") (A") (A') (A') (A') (A") (A')
                 (A') (A") (A") (A') (A') (A") (A") (A') (A') (A")
                 (A") (A') (A') (A") (A') (A') (A") (A") (A") (A')
                 (A") (A') (A') (A") (A') (A") (A") (A') (A") (A")
                 (A') (A') (A') (A") (A') (A') (A") (A') (A") (A')
                 (A") (A") (A') (A") (A") (A') (A') (A") (A") (A')
                 (A") (A') (A') (A') (A") (A") (A') (A") (A') (A")
                 (A') (A") (A') (A') (A") (A") (A') (A') (A") (A')
                 (A") (A") (A") (A") (A') (A") (A') (A') (A') (A')
                 (A") (A') (A') (A') (A") (A") (A") (A') (A") (A")
                 (A') (A") (A') (A') (A') (A") (A') (A") (A") (A')
                 (A") (A") (A') (A") (A') (A") (A') (A") (A') (A')
                 (A") (A') (A') (A') (A") (A") (A') (A') (A") (A')
                 (A") (A') (A") (A") (A') (A') (A') (A') (A') (A")
                 (A') (A") (A') (A') (A") (A") (A") (A") (A") (A')
                 (A") (A") (A') (A") (A") (A') (A") (A') (A") (A')
                 (A') (A') (A") (A") (A') (A') (A') (A") (A') (A')
                 (A') (A') (A") (A") (A') (A') (A") (A") (A") (A')
                 (A') (A") (A") (A') (A") (A') (A') (A") (A') (A")
                 (A') (A') (A") (A") (A') (A') (A") (A') (A') (A")
                 (A') (A') (A") (A') (A") (A') (A') (A") (A") (A')
                 (A") (A") (A") (A') (A') (A") (A') (A") (A") (A')
                 (A") (A') (A") (A') (A") (A") (A') (A") (A') (A")
                 (A') (A') (A") (A') (A') (A") (A") (A') (A") (A')
                 (A") (A") (A') (A') (A") (A') (A") (A') (A') (A')
                 (A") (A") (A') (A") (A') (A") (A") (A") (A') (A')
                 (A') (A") (A") (A') (A') (A') (A") (A") (A') (A")
                 (A") (A") (A') (A") (A") (A") (A") (A") (A') (A')
                 (A") (A') (A') (A') (A") (A') (A') (A') (A") (A")
                 (A') (A') (A') (A") (A') (A") (A') (A") (A') (A")
                 (A") (A") (A') (A") (A') (A') (A") (A') (A") (A')
                 (A") (A') (A") (A') (A") (A") (A') (A") (A') (A')
                 (A") (A") (A') (A') (A') (A") (A") (A") (A') (A")
                 (A') (A") (A") (A') (A") (A') (A') (A") (A') (A')
                 (A") (A') (A") (A') (A") (A') (A') (A") (A") (A")
                 (A') (A') (A') (A') (A") (A') (A') (A') (A") (A')
                 (A") (A") (A") (A') (A') (A") (A') (A") (A") (A')
                 (A") (A') (A") (A") (A') (A") (A') (A') (A") (A')
                 (A") (A') (A') (A") (A') (A') (A") (A") (A') (A')
                 (A') (A") (A') (A") (A') (A') (A") (A') (A') (A")
                 (A") (A') (A") (A') (A') (A") (A') (A") (A") (A")
                 (A") (A") (A') (A') (A') (A') (A') (A') (A") (A')
                 (A") (A") (A") (A') (A") (A') (A") (A") (A') (A')
                 (A") (A') (A") (A') (A') (A') (A") (A') (A') (A")
                 (A") (A') (A") (A') (A") (A") (A') (A') (A') (A")
                 (A') (A") (A") (A') (A") (A') (A") (A") (A') (A')
                 (A') (A') (A") (A") (A') (A") (A') (A") (A") (A")
                 (A') (A') (A") (A') (A') (A') (A") (A") (A') (A")
                 (A') (A') (A") (A") (A') (A") (A') (A") (A') (A")
                 (A") (A') (A") (A") (A') (A') (A') (A') (A") (A")
                 (A') (A') (A") (A') (A") (A') (A') (A') (A") (A")
                 (A") (A') (A") (A') (A") (A') (A') (A") (A') (A")
                 (A') (A") (A') (A") (A') (A') (A") (A') (A') (A")
                 (A') (A') (A") (A') (A") (A") (A') (A') (A") (A")
                 (A") (A') (A") (A") (A') (A") (A') (A") (A') (A")
                 (A') (A') (A") (A") (A') (A') (A') (A') (A") (A")
                 (A") (A") (A') (A') (A") (A') (A") (A') (A') (A')
                 (A") (A") (A") (A") (A') (A') (A') (A") (A') (A")
                 (A') (A') (A") (A') (A") (A") (A') (A') (A") (A')
                 (A') (A") (A') (A")
 The electronic state is 1-A'.
 Alpha  occ. eigenvalues --  -10.19517 -10.19517 -10.19452 -10.19451 -10.19423
 Alpha  occ. eigenvalues --  -10.19423 -10.19342 -10.19342 -10.18524 -10.18504
 Alpha  occ. eigenvalues --  -10.18466 -10.18466 -10.18465 -10.18465 -10.18409
 Alpha  occ. eigenvalues --  -10.18409 -10.18344 -10.18344 -10.18330 -10.18330
 Alpha  occ. eigenvalues --  -10.18251 -10.18251 -10.18201 -10.18201 -10.18149
 Alpha  occ. eigenvalues --  -10.18149 -10.18121 -10.18121 -10.18048 -10.18048
 Alpha  occ. eigenvalues --  -10.17255 -10.17255 -10.17211 -10.17201 -10.17200
 Alpha  occ. eigenvalues --  -10.17186 -10.17186 -10.17129 -10.17119 -10.17119
 Alpha  occ. eigenvalues --  -10.17094 -10.17094 -10.17023 -10.17023  -0.89911
 Alpha  occ. eigenvalues --   -0.88604  -0.88418  -0.87150  -0.86094  -0.84843
 Alpha  occ. eigenvalues --   -0.82956  -0.81714  -0.80367  -0.79066  -0.79059
 Alpha  occ. eigenvalues --   -0.78845  -0.77823  -0.77581  -0.76514  -0.75267
 Alpha  occ. eigenvalues --   -0.74797  -0.73552  -0.73422  -0.72181  -0.69723
 Alpha  occ. eigenvalues --   -0.68469  -0.67878  -0.66637  -0.63258  -0.62888
 Alpha  occ. eigenvalues --   -0.62012  -0.61672  -0.61627  -0.60472  -0.60333
 Alpha  occ. eigenvalues --   -0.59808  -0.59204  -0.58565  -0.58202  -0.56984
 Alpha  occ. eigenvalues --   -0.53227  -0.53077  -0.52799  -0.52002  -0.51836
 Alpha  occ. eigenvalues --   -0.51592  -0.50147  -0.49028  -0.48913  -0.47830
 Alpha  occ. eigenvalues --   -0.47651  -0.46601  -0.46446  -0.46064  -0.46003
 Alpha  occ. eigenvalues --   -0.45362  -0.44842  -0.44765  -0.44443  -0.43668
 Alpha  occ. eigenvalues --   -0.43239  -0.43056  -0.42466  -0.42308  -0.42074
 Alpha  occ. eigenvalues --   -0.41933  -0.41828  -0.41233  -0.41046  -0.40913
 Alpha  occ. eigenvalues --   -0.40820  -0.40669  -0.40152  -0.39962  -0.39710
 Alpha  occ. eigenvalues --   -0.38884  -0.38690  -0.37472  -0.37309  -0.36839
 Alpha  occ. eigenvalues --   -0.36050  -0.36041  -0.35673  -0.34769  -0.34622
 Alpha  occ. eigenvalues --   -0.34297  -0.33562  -0.33462  -0.33381  -0.33058
 Alpha  occ. eigenvalues --   -0.32554  -0.32253  -0.31872  -0.30879  -0.30185
 Alpha  occ. eigenvalues --   -0.28955  -0.28952  -0.27736  -0.27162  -0.25918
 Alpha  occ. eigenvalues --   -0.24945  -0.23680  -0.23128  -0.21877  -0.18416
 Alpha  occ. eigenvalues --   -0.17132
 Alpha virt. eigenvalues --   -0.10324  -0.09039  -0.05018  -0.03766  -0.03324
 Alpha virt. eigenvalues --   -0.02061  -0.00712   0.00553   0.01523   0.01752
 Alpha virt. eigenvalues --    0.02462   0.02743   0.03075   0.03765   0.03961
 Alpha virt. eigenvalues --    0.03985   0.04528   0.05265   0.05640   0.05875
 Alpha virt. eigenvalues --    0.05919   0.06405   0.07228   0.07590   0.07789
 Alpha virt. eigenvalues --    0.07794   0.08452   0.08893   0.08980   0.09466
 Alpha virt. eigenvalues --    0.09620   0.09696   0.10734   0.10866   0.11123
 Alpha virt. eigenvalues --    0.11504   0.12438   0.12662   0.13420   0.13643
 Alpha virt. eigenvalues --    0.14255   0.14811   0.14942   0.15568   0.17576
 Alpha virt. eigenvalues --    0.17850   0.18381   0.18803   0.18811   0.19103
 Alpha virt. eigenvalues --    0.19490   0.20200   0.22366   0.22488   0.23549
 Alpha virt. eigenvalues --    0.23716   0.23938   0.24395   0.25100   0.25121
 Alpha virt. eigenvalues --    0.25455   0.26186   0.27052   0.27124   0.27431
 Alpha virt. eigenvalues --    0.27743   0.27969   0.28137   0.28660   0.28769
 Alpha virt. eigenvalues --    0.28872   0.29266   0.29539   0.30039   0.30055
 Alpha virt. eigenvalues --    0.30275   0.30683   0.31300   0.31413   0.31990
 Alpha virt. eigenvalues --    0.32193   0.34049   0.34371   0.35040   0.35913
 Alpha virt. eigenvalues --    0.35929   0.35976   0.36435   0.36744   0.36974
 Alpha virt. eigenvalues --    0.37062   0.37471   0.37792   0.37812   0.37979
 Alpha virt. eigenvalues --    0.38451   0.38494   0.38543   0.38861   0.39300
 Alpha virt. eigenvalues --    0.39318   0.39532   0.39717   0.39787   0.40045
 Alpha virt. eigenvalues --    0.40346   0.40602   0.40859   0.41362   0.41430
 Alpha virt. eigenvalues --    0.41700   0.42110   0.42278   0.42288   0.42461
 Alpha virt. eigenvalues --    0.42510   0.42641   0.43065   0.43138   0.43192
 Alpha virt. eigenvalues --    0.43541   0.44008   0.44024   0.44574   0.45101
 Alpha virt. eigenvalues --    0.45106   0.45169   0.45381   0.45558   0.45818
 Alpha virt. eigenvalues --    0.45892   0.46025   0.46061   0.46310   0.46391
 Alpha virt. eigenvalues --    0.46594   0.46801   0.47108   0.47195   0.47376
 Alpha virt. eigenvalues --    0.47688   0.47759   0.48340   0.48434   0.48766
 Alpha virt. eigenvalues --    0.49131   0.49373   0.49536   0.49859   0.50240
 Alpha virt. eigenvalues --    0.50249   0.50316   0.50764   0.51024   0.51221
 Alpha virt. eigenvalues --    0.51874   0.51979   0.52403   0.52880   0.53310
 Alpha virt. eigenvalues --    0.54060   0.54287   0.54444   0.54818   0.54822
 Alpha virt. eigenvalues --    0.55981   0.56153   0.56961   0.57382   0.57454
 Alpha virt. eigenvalues --    0.58457   0.58667   0.59206   0.59315   0.59857
 Alpha virt. eigenvalues --    0.60000   0.60610   0.60852   0.61274   0.61507
 Alpha virt. eigenvalues --    0.61572   0.61707   0.62015   0.62224   0.62343
 Alpha virt. eigenvalues --    0.62611   0.62756   0.63087   0.63376   0.63401
 Alpha virt. eigenvalues --    0.63979   0.64069   0.64575   0.64859   0.65677
 Alpha virt. eigenvalues --    0.65876   0.65960   0.66304   0.66516   0.66622
 Alpha virt. eigenvalues --    0.67173   0.67365   0.68067   0.69829   0.70295
 Alpha virt. eigenvalues --    0.70717   0.70719   0.71592   0.71750   0.72076
 Alpha virt. eigenvalues --    0.72498   0.72604   0.72945   0.73072   0.73671
 Alpha virt. eigenvalues --    0.74177   0.74814   0.74884   0.75292   0.76024
 Alpha virt. eigenvalues --    0.76092   0.76855   0.77216   0.77351   0.78001
 Alpha virt. eigenvalues --    0.78509   0.78677   0.78981   0.79306   0.80304
 Alpha virt. eigenvalues --    0.80503   0.80620   0.81068   0.81416   0.82134
 Alpha virt. eigenvalues --    0.82211   0.82623   0.82808   0.83219   0.83245
 Alpha virt. eigenvalues --    0.83656   0.84054   0.84892   0.85253   0.85403
 Alpha virt. eigenvalues --    0.86002   0.86050   0.87719   0.88376   0.88473
 Alpha virt. eigenvalues --    0.89761   0.90317   0.90505   0.91014   0.91409
 Alpha virt. eigenvalues --    0.91521   0.92028   0.92915   0.93291   0.93493
 Alpha virt. eigenvalues --    0.93841   0.94475   0.94903   0.95089   0.95391
 Alpha virt. eigenvalues --    0.95932   0.96060   0.96486   0.96585   0.96727
 Alpha virt. eigenvalues --    0.98018   0.98398   0.98449   0.99257   0.99442
 Alpha virt. eigenvalues --    0.99800   1.00240   1.00904   1.01826   1.02186
 Alpha virt. eigenvalues --    1.02601   1.02858   1.03232   1.03391   1.03939
 Alpha virt. eigenvalues --    1.04328   1.04989   1.05053   1.05221   1.05721
 Alpha virt. eigenvalues --    1.05938   1.06040   1.06062   1.06160   1.06256
 Alpha virt. eigenvalues --    1.06691   1.07083   1.07584   1.07942   1.08133
 Alpha virt. eigenvalues --    1.08471   1.09117   1.09460   1.09958   1.10254
 Alpha virt. eigenvalues --    1.10753   1.11054   1.11633   1.12375   1.12776
 Alpha virt. eigenvalues --    1.12933   1.12940   1.13487   1.13913   1.14004
 Alpha virt. eigenvalues --    1.14913   1.15226   1.15466   1.16021   1.16395
 Alpha virt. eigenvalues --    1.17266   1.17998   1.18172   1.19072   1.20126
 Alpha virt. eigenvalues --    1.21021   1.21798   1.22670   1.23270   1.23502
 Alpha virt. eigenvalues --    1.24102   1.25489   1.27675   1.27917   1.30219
 Alpha virt. eigenvalues --    1.30775   1.30844   1.32247   1.32509   1.33143
 Alpha virt. eigenvalues --    1.34305   1.35194   1.35884   1.36265   1.37333
 Alpha virt. eigenvalues --    1.38497   1.39041   1.39537   1.39863   1.40145
 Alpha virt. eigenvalues --    1.40334   1.40731   1.40745   1.41481   1.42357
 Alpha virt. eigenvalues --    1.42432   1.43262   1.43749   1.44165   1.44885
 Alpha virt. eigenvalues --    1.45127   1.45704   1.46279   1.47000   1.47039
 Alpha virt. eigenvalues --    1.47270   1.47812   1.48130   1.48843   1.49165
 Alpha virt. eigenvalues --    1.49217   1.49502   1.49943   1.50034   1.50592
 Alpha virt. eigenvalues --    1.50616   1.51221   1.51514   1.52681   1.52974
 Alpha virt. eigenvalues --    1.53022   1.53676   1.53728   1.54159   1.54171
 Alpha virt. eigenvalues --    1.54443   1.54479   1.54999   1.55051   1.55234
 Alpha virt. eigenvalues --    1.55588   1.57016   1.57680   1.57811   1.58064
 Alpha virt. eigenvalues --    1.58777   1.59172   1.59617   1.60188   1.60678
 Alpha virt. eigenvalues --    1.61446   1.61552   1.62403   1.62882   1.63788
 Alpha virt. eigenvalues --    1.64540   1.65173   1.66212   1.66410   1.67491
 Alpha virt. eigenvalues --    1.69092   1.69483   1.69631   1.70216   1.70419
 Alpha virt. eigenvalues --    1.70489   1.70968   1.71722   1.72112   1.72201
 Alpha virt. eigenvalues --    1.72717   1.73425   1.73488   1.73636   1.73742
 Alpha virt. eigenvalues --    1.73765   1.74177   1.74210   1.74736   1.75923
 Alpha virt. eigenvalues --    1.77021   1.77945   1.78328   1.79033   1.79614
 Alpha virt. eigenvalues --    1.79812   1.79992   1.80032   1.81269   1.81370
 Alpha virt. eigenvalues --    1.81750   1.81987   1.82462   1.82469   1.82869
 Alpha virt. eigenvalues --    1.83102   1.84052   1.84392   1.84588   1.85044
 Alpha virt. eigenvalues --    1.85171   1.86447   1.87077   1.87408   1.87454
 Alpha virt. eigenvalues --    1.87524   1.88149   1.88206   1.88313   1.88474
 Alpha virt. eigenvalues --    1.88562   1.88850   1.88986   1.89991   1.90649
 Alpha virt. eigenvalues --    1.90673   1.91384   1.91507   1.92103   1.92202
 Alpha virt. eigenvalues --    1.92449   1.92931   1.93047   1.93393   1.93418
 Alpha virt. eigenvalues --    1.93507   1.93896   1.94228   1.94351   1.95186
 Alpha virt. eigenvalues --    1.95545   1.95623   1.95875   1.96281   1.97171
 Alpha virt. eigenvalues --    1.98043   1.99604   2.00271   2.00462   2.00837
 Alpha virt. eigenvalues --    2.00854   2.00932   2.02025   2.02516   2.03824
 Alpha virt. eigenvalues --    2.04591   2.05408   2.07353   2.07842   2.08738
 Alpha virt. eigenvalues --    2.09170   2.09299   2.10001   2.10583   2.10696
 Alpha virt. eigenvalues --    2.10741   2.11751   2.12921   2.13832   2.14883
 Alpha virt. eigenvalues --    2.15223   2.15745   2.16358   2.16696   2.17165
 Alpha virt. eigenvalues --    2.17892   2.19458   2.20404   2.21082   2.21691
 Alpha virt. eigenvalues --    2.22141   2.22465   2.22864   2.22996   2.23469
 Alpha virt. eigenvalues --    2.24079   2.24437   2.25231   2.26467   2.26524
 Alpha virt. eigenvalues --    2.26741   2.27371   2.27438   2.27800   2.27877
 Alpha virt. eigenvalues --    2.27962   2.28933   2.29175   2.29771   2.31548
 Alpha virt. eigenvalues --    2.33300   2.34677   2.35247   2.36465   2.38784
 Alpha virt. eigenvalues --    2.38863   2.40086   2.40281   2.40362   2.41309
 Alpha virt. eigenvalues --    2.42620   2.42791   2.43959   2.44281   2.45265
 Alpha virt. eigenvalues --    2.45475   2.45993   2.46524   2.46750   2.48342
 Alpha virt. eigenvalues --    2.50839   2.52617   2.52888   2.53180   2.53980
 Alpha virt. eigenvalues --    2.54223   2.54701   2.54797   2.55934   2.56714
 Alpha virt. eigenvalues --    2.56797   2.58303   2.58547   2.59186   2.59359
 Alpha virt. eigenvalues --    2.59489   2.59831   2.60409   2.60410   2.60730
 Alpha virt. eigenvalues --    2.60904   2.61286   2.61770   2.61880   2.62617
 Alpha virt. eigenvalues --    2.62870   2.63055   2.63693   2.63960   2.64597
 Alpha virt. eigenvalues --    2.64890   2.64924   2.65690   2.66079   2.66527
 Alpha virt. eigenvalues --    2.66701   2.67078   2.67341   2.67628   2.67829
 Alpha virt. eigenvalues --    2.67994   2.68533   2.68767   2.69132   2.69358
 Alpha virt. eigenvalues --    2.69565   2.69623   2.69767   2.70051   2.70271
 Alpha virt. eigenvalues --    2.70524   2.70535   2.71173   2.71858   2.73051
 Alpha virt. eigenvalues --    2.73742   2.73819   2.73855   2.74544   2.75094
 Alpha virt. eigenvalues --    2.75415   2.75519   2.76307   2.77050   2.77268
 Alpha virt. eigenvalues --    2.77456   2.77865   2.78202   2.78678   2.78923
 Alpha virt. eigenvalues --    2.79122   2.79676   2.80060   2.81056   2.81266
 Alpha virt. eigenvalues --    2.81632   2.82625   2.83253   2.83384   2.84871
 Alpha virt. eigenvalues --    2.85790   2.86359   2.86721   2.86788   2.86990
 Alpha virt. eigenvalues --    2.88018   2.88592   2.89338   2.90503   2.91626
 Alpha virt. eigenvalues --    2.91908   2.92124   2.92997   2.93215   2.93536
 Alpha virt. eigenvalues --    2.94912   2.95418   2.95548   2.97541   2.97702
 Alpha virt. eigenvalues --    2.98775   2.99978   3.00282   3.01427   3.02939
 Alpha virt. eigenvalues --    3.04180   3.05544   3.06441   3.06789   3.07182
 Alpha virt. eigenvalues --    3.07879   3.08389   3.15650   3.15793   3.16249
 Alpha virt. eigenvalues --    3.16873   3.17109   3.17605   3.19447   3.19910
 Alpha virt. eigenvalues --    3.20698   3.20997   3.23285   3.24504   3.28956
 Alpha virt. eigenvalues --    3.29582   3.30058   3.30554   3.31247   3.32559
 Alpha virt. eigenvalues --    3.34910   3.35453   3.36030   3.36281   3.36569
 Alpha virt. eigenvalues --    3.36766   3.36926   3.37655   3.38538   3.38888
 Alpha virt. eigenvalues --    3.39569   3.40807   3.40948   3.42766   3.44761
 Alpha virt. eigenvalues --    3.44995   3.45811   3.46343   3.48648   3.48714
 Alpha virt. eigenvalues --    3.49676   3.49945   3.50863   3.51256   3.52964
 Alpha virt. eigenvalues --    3.54300   3.57089   3.58284   3.58427   3.59612
 Alpha virt. eigenvalues --    3.61484   3.62362   3.62544   3.63318   3.63559
 Alpha virt. eigenvalues --    3.63954   3.65783   3.66088   3.66184   3.67378
 Alpha virt. eigenvalues --    3.67927   3.68183   3.69542   3.69630   4.00018
 Alpha virt. eigenvalues --    4.00077   4.01416   4.01582   4.01638   4.01745
 Alpha virt. eigenvalues --    4.02704   4.03042   4.15703   4.16256   4.17126
 Alpha virt. eigenvalues --    4.17367   4.17974   4.19977   4.20869   4.22001
 Alpha virt. eigenvalues --    4.22144   4.22430   4.23520   4.24070   4.25366
 Alpha virt. eigenvalues --    4.27601   4.38096   4.39892   4.61778   4.63460
 Alpha virt. eigenvalues --    4.78647   4.79235   4.80011   4.80184   4.80645
 Alpha virt. eigenvalues --    4.81627   4.82030   4.82478   4.83790   4.84193
 Alpha virt. eigenvalues --   23.39420  23.41221  23.54795  23.56633  23.69418
 Alpha virt. eigenvalues --   23.70871  23.77232  23.78332  23.80692  23.81243
 Alpha virt. eigenvalues --   23.81798  23.82597  23.85833  23.87015  23.88762
 Alpha virt. eigenvalues --   23.89406  23.89982  23.90170  23.91893  23.93211
 Alpha virt. eigenvalues --   23.97022  23.97994  23.98425  23.99169  24.08651
 Alpha virt. eigenvalues --   24.09437  24.09846  24.10070  24.10702  24.11300
 Alpha virt. eigenvalues --   24.11765  24.13223  24.13270  24.13844  24.14754
 Alpha virt. eigenvalues --   24.15283  24.15318  24.15429  24.16467  24.16500
 Alpha virt. eigenvalues --   24.19963  24.20008  24.21312  24.21364
          Condensed to atoms (all electrons):
 Mulliken charges:
               1
     1  C   -0.042174
     2  C   -0.066839
     3  C   -0.076408
     4  C   -0.049233
     5  C   -0.089030
     6  C   -0.091463
     7  C   -0.050243
     8  C   -0.030457
     9  C   -0.001645
    10  C   -0.066788
    11  H    0.084769
    12  H    0.076195
    13  H    0.077773
    14  H    0.084748
    15  H    0.097064
    16  H    0.097775
    17  C   -0.054387
    18  C   -0.030457
    19  C   -0.005844
    20  C   -0.066788
    21  H    0.074902
    22  H    0.076434
    23  C   -0.050243
    24  C   -0.042174
    25  C   -0.001645
    26  C   -0.066839
    27  H    0.076195
    28  H    0.077773
    29  C   -0.076408
    30  C   -0.089030
    31  C   -0.049233
    32  C   -0.091463
    33  H    0.084769
    34  H    0.097775
    35  H    0.097064
    36  H    0.084748
    37  C   -0.038068
    38  C   -0.098147
    39  C   -0.061153
    40  C   -0.055449
    41  C   -0.088463
    42  C   -0.110684
    43  C   -0.026565
    44  C   -0.028608
    45  C   -0.014408
    46  C   -0.099845
    47  H    0.079320
    48  H    0.071350
    49  H    0.111216
    50  H    0.113987
    51  H    0.088966
    52  H    0.091831
    53  C   -0.030845
    54  C   -0.028608
    55  C   -0.018251
    56  C   -0.099845
    57  H    0.069940
    58  H    0.109404
    59  C   -0.026565
    60  C   -0.038068
    61  C   -0.014408
    62  C   -0.098147
    63  H    0.071350
    64  H    0.111216
    65  C   -0.061153
    66  C   -0.088463
    67  C   -0.055449
    68  C   -0.110684
    69  H    0.079320
    70  H    0.091831
    71  H    0.088966
    72  H    0.113987
 Sum of Mulliken charges =   0.00000
 Mulliken charges with hydrogens summed into heavy atoms:
               1
     1  C   -0.042174
     2  C   -0.066839
     3  C    0.008362
     4  C    0.035515
     5  C    0.008745
     6  C    0.005601
     7  C    0.025952
     8  C   -0.030457
     9  C    0.076128
    10  C   -0.066788
    17  C    0.020514
    18  C   -0.030457
    19  C    0.070590
    20  C   -0.066788
    23  C    0.025952
    24  C   -0.042174
    25  C    0.076128
    26  C   -0.066839
    29  C    0.008362
    30  C    0.008745
    31  C    0.035515
    32  C    0.005601
    37  C   -0.038068
    38  C   -0.098147
    39  C    0.018167
    40  C    0.058538
    41  C    0.003368
    42  C   -0.021718
    43  C    0.044785
    44  C   -0.028608
    45  C    0.096808
    46  C   -0.099845
    53  C    0.039095
    54  C   -0.028608
    55  C    0.091153
    56  C   -0.099845
    59  C    0.044785
    60  C   -0.038068
    61  C    0.096808
    62  C   -0.098147
    65  C    0.018167
    66  C    0.003368
    67  C    0.058538
    68  C   -0.021718
         Mulliken charges condensed to fragments:
      1     -0.000807
      2      0.000807
 Electronic spatial extent (au):  <R**2>=          27233.1289
 Charge=              0.0000 electrons
 Dipole moment (field-independent basis, Debye):
    X=             -0.4514    Y=             -1.2015    Z=              0.0000  Tot=              1.2835
 Quadrupole moment (field-independent basis, Debye-Ang):
   XX=           -246.1545   YY=           -248.8252   ZZ=           -219.3105
   XY=              0.2535   XZ=              0.0000   YZ=              0.0000
 Traceless Quadrupole moment (field-independent basis, Debye-Ang):
   XX=             -8.0577   YY=            -10.7285   ZZ=             18.7862
   XY=              0.2535   XZ=              0.0000   YZ=              0.0000
 Octapole moment (field-independent basis, Debye-Ang**2):
  XXX=            -43.7442  YYY=            193.5515  ZZZ=              0.0000  XYY=              9.3653
  XXY=            -76.9080  XXZ=              0.0000  XZZ=             -7.9763  YZZ=            -28.3263
  YYZ=              0.0000  XYZ=              0.0000
 Hexadecapole moment (field-independent basis, Debye-Ang**3):
 XXXX=          -1677.0124 YYYY=         -13188.3641 ZZZZ=         -21004.5880 XXXY=          -1106.6771
 XXXZ=              0.0000 YYYX=          -1115.4317 YYYZ=              0.0000 ZZZX=              0.0000
 ZZZY=              0.0000 XXYY=          -2553.0563 XXZZ=          -4225.9547 YYZZ=          -5949.3587
 XXYZ=              0.0000 YYXZ=              0.0000 ZZXY=           -326.8197
 N-N= 4.538968049588D+03 E-N=-1.300836369263D+04  KE= 1.686675891922D+03
 Symmetry A'   KE= 9.134149869661D+02
 Symmetry A"   KE= 7.732609049558D+02
 No NMR shielding tensors so no spin-rotation constants.
 Leave Link  601 at Wed Sep 27 16:39:50 2023, MaxMem=  3221225472 cpu:              54.0 elap:               1.4
 (Enter /home/center/opt/aarch64/apps/gaussian16/c01/g16/l122.exe)
 CPIOFr:  IOpCl= 0 IRwI=-1 IRwCP=  731 ICalc= -1 LCPTot=     1419224 Len1MO=     3708034 IndFrg=     1419224
 CPIOFr:  IOpCl= 0 IRwI=-1 IRwCP=  731 ICalc=  0 LCPTot=     1419224 Len1MO=     3708034 IndFrg=     5127258
 Counterpoise: doing calculation for fragment   1 using the basis set of the full-system, NewBq=T
 Leave Link  122 at Wed Sep 27 16:39:53 2023, MaxMem=  3221225472 cpu:               8.4 elap:               0.5
 (Enter /home/center/opt/aarch64/apps/gaussian16/c01/g16/l301.exe)
 Basis read from rwf:  (5D, 7F)
 No pseudopotential information found on rwf file.
 There are   528 symmetry adapted cartesian basis functions of A'  symmetry.
 There are   476 symmetry adapted cartesian basis functions of A"  symmetry.
 There are   504 symmetry adapted basis functions of A'  symmetry.
 There are   456 symmetry adapted basis functions of A"  symmetry.
   960 basis functions,  1632 primitive gaussians,  1004 cartesian basis functions
    73 alpha electrons       73 beta electrons
       nuclear repulsion energy      1494.3575061077 Hartrees.
 IExCor=  402 DFT=T Ex+Corr=B3LYP ExCW=0 ScaHFX=  0.200000
 ScaDFX=  0.800000  0.720000  1.000000  0.810000 ScalE2=  1.000000  1.000000
 IRadAn=      5 IRanWt=     -1 IRanGd=            0 ICorTp=0 IEmpDi=131
 NAtoms=   72 NActive=   72 NUniq=   40 SFac= 3.24D+00 NAtFMM=   60 NAOKFM=T Big=F
 Integral buffers will be    131072 words long.
 Raffenetti 2 integral format.
 Two-electron integral symmetry is turned on.
 R6Disp:  Grimme-D3 Dispersion energy=       -0.0303938888 Hartrees.
 Nuclear repulsion after empirical dispersion term =     1494.3271122189 Hartrees.
 No density basis found on file    718.
 Leave Link  301 at Wed Sep 27 16:39:55 2023, MaxMem=  3221225472 cpu:               2.2 elap:               0.1
 (Enter /home/center/opt/aarch64/apps/gaussian16/c01/g16/l302.exe)
 NPDir=0 NMtPBC=     1 NCelOv=     1 NCel=       1 NClECP=     1 NCelD=      1
         NCelK=      1 NCelE2=     1 NClLst=     1 CellRange=     0.0.
 One-electron integrals computed using PRISM.
 One-electron integral symmetry used in STVInt
 NBasis=   960 RedAO= T EigKep=  3.86D-05  NBF=   504   456
 NBsUse=   960 1.00D-06 EigRej= -1.00D+00 NBFU=   504   456
 Precomputing XC quadrature grid using
 IXCGrd= 4 IRadAn=           5 IRanWt=          -1 IRanGd=           0 AccXCQ= 0.00D+00.
 Generated NRdTot=       0 NPtTot=           0 NUsed=           0 NTot=          32
 NSgBfM=   989   989   989   989   989 MxSgAt=    72 MxSgA2=    72.
 Leave Link  302 at Wed Sep 27 16:39:59 2023, MaxMem=  3221225472 cpu:              59.4 elap:               1.6
 (Enter /home/center/opt/aarch64/apps/gaussian16/c01/g16/l303.exe)
 DipDrv:  MaxL=1.
 Leave Link  303 at Wed Sep 27 16:40:02 2023, MaxMem=  3221225472 cpu:              12.4 elap:               0.4
 (Enter /home/center/opt/aarch64/apps/gaussian16/c01/g16/l401.exe)
 ExpMin= 1.03D-01 ExpMax= 4.56D+03 ExpMxC= 6.82D+02 IAcc=3 IRadAn=         5 AccDes= 0.00D+00
 Harris functional with IExCor=  402 and IRadAn=       5 diagonalized for initial guess.
 HarFok:  IExCor=  402 AccDes= 0.00D+00 IRadAn=         5 IDoV= 1 UseB2=F ITyADJ=14
 ICtDFT=  3500011 ScaDFX=  1.000000  1.000000  1.000000  1.000000
 FoFCou: FMM=F IPFlag=           0 FMFlag=      100000 FMFlg1=        2000
         NFxFlg=           0 DoJE=T BraDBF=F KetDBF=T FulRan=T
         wScrn=  0.000000 ICntrl=       500 IOpCl=  0 I1Cent=   200000004 NGrid=           0
         NMat0=    1 NMatS0=      1 NMatT0=    0 NMatD0=    1 NMtDS0=    0 NMtDT0=    0
 Petite list used in FoFCou.
 Harris En= -847.065799652675    
 JPrj=0 DoOrth=F DoCkMO=F.
 Initial guess orbital symmetries:
       Occupied  (A") (A') (A') (A") (A") (A') (A") (A') (A') (A")
                 (A") (A') (A') (A') (A") (A') (A") (A') (A") (A')
                 (A') (A") (A') (A") (A') (A") (A') (A') (A") (A')
                 (A") (A") (A') (A') (A") (A") (A') (A") (A') (A')
                 (A') (A") (A") (A") (A') (A') (A") (A') (A') (A")
                 (A') (A") (A") (A') (A') (A") (A') (A") (A') (A")
                 (A") (A') (A') (A") (A') (A") (A') (A") (A') (A')
                 (A") (A") (A')
       Virtual   (A') (A") (A") (A') (A') (A") (A') (A") (A') (A")
                 (A') (A') (A") (A') (A") (A') (A") (A') (A') (A")
                 (A") (A") (A') (A') (A") (A') (A') (A') (A') (A')
                 (A") (A") (A') (A") (A') (A") (A') (A") (A") (A')
                 (A') (A") (A") (A') (A") (A') (A") (A') (A") (A')
                 (A') (A") (A') (A") (A') (A") (A') (A') (A") (A')
                 (A') (A") (A') (A") (A") (A') (A") (A') (A") (A')
                 (A') (A") (A") (A") (A') (A') (A') (A') (A') (A')
                 (A") (A') (A") (A") (A') (A") (A') (A") (A') (A")
                 (A") (A") (A") (A') (A") (A') (A") (A') (A') (A')
                 (A') (A') (A") (A') (A') (A") (A') (A") (A') (A")
                 (A") (A') (A') (A") (A') (A") (A') (A") (A") (A")
                 (A") (A') (A') (A") (A') (A") (A') (A') (A") (A')
                 (A") (A') (A') (A') (A") (A') (A") (A') (A') (A")
                 (A') (A') (A") (A") (A') (A') (A") (A") (A') (A")
                 (A') (A") (A") (A") (A') (A") (A') (A') (A') (A")
                 (A') (A') (A") (A') (A") (A") (A') (A") (A') (A")
                 (A") (A') (A") (A') (A') (A") (A') (A") (A') (A')
                 (A") (A') (A") (A') (A") (A") (A') (A") (A') (A')
                 (A") (A') (A') (A") (A') (A") (A') (A") (A') (A")
                 (A") (A') (A") (A') (A") (A') (A") (A') (A") (A')
                 (A') (A') (A") (A") (A") (A') (A') (A") (A") (A")
                 (A') (A') (A') (A') (A") (A") (A') (A') (A') (A")
                 (A') (A") (A') (A") (A") (A') (A") (A') (A") (A")
                 (A') (A") (A') (A') (A") (A') (A') (A") (A") (A")
                 (A") (A') (A") (A') (A') (A') (A') (A') (A") (A")
                 (A') (A") (A") (A') (A') (A') (A") (A") (A') (A")
                 (A') (A') (A") (A") (A") (A') (A") (A') (A') (A")
                 (A') (A") (A') (A') (A") (A") (A') (A") (A') (A')
                 (A") (A') (A") (A') (A') (A") (A') (A") (A') (A')
                 (A") (A') (A') (A") (A") (A') (A") (A") (A") (A")
                 (A') (A") (A') (A") (A') (A') (A') (A') (A") (A')
                 (A") (A') (A") (A") (A') (A') (A") (A') (A') (A")
                 (A") (A') (A') (A') (A") (A') (A") (A') (A') (A")
                 (A") (A') (A") (A") (A') (A") (A") (A') (A') (A')
                 (A') (A") (A") (A') (A") (A') (A") (A') (A') (A')
                 (A") (A') (A") (A') (A") (A") (A") (A') (A") (A')
                 (A") (A') (A') (A") (A') (A") (A") (A') (A") (A')
                 (A") (A') (A') (A") (A") (A') (A') (A") (A') (A')
                 (A") (A") (A') (A") (A') (A") (A') (A') (A") (A")
                 (A') (A') (A") (A") (A") (A') (A") (A') (A') (A")
                 (A") (A') (A') (A') (A') (A") (A") (A') (A") (A')
                 (A") (A") (A') (A") (A') (A") (A') (A") (A') (A")
                 (A") (A') (A') (A') (A') (A') (A") (A") (A") (A')
                 (A") (A') (A') (A') (A") (A') (A") (A") (A") (A")
                 (A') (A') (A') (A') (A') (A") (A') (A") (A") (A")
                 (A') (A") (A') (A") (A') (A") (A') (A") (A') (A')
                 (A") (A') (A") (A') (A") (A") (A') (A") (A') (A")
                 (A') (A") (A") (A') (A") (A') (A') (A") (A") (A')
                 (A") (A') (A') (A") (A') (A") (A') (A') (A") (A")
                 (A') (A") (A') (A") (A') (A") (A") (A') (A') (A')
                 (A") (A') (A") (A") (A') (A") (A") (A') (A') (A')
                 (A") (A') (A") (A") (A') (A") (A') (A') (A") (A')
                 (A') (A") (A") (A') (A') (A") (A') (A') (A") (A')
                 (A") (A") (A') (A') (A') (A") (A') (A") (A") (A')
                 (A") (A") (A') (A") (A') (A') (A') (A") (A') (A")
                 (A') (A") (A') (A') (A") (A") (A") (A") (A') (A")
                 (A') (A') (A') (A") (A') (A') (A') (A") (A') (A")
                 (A") (A') (A") (A") (A') (A') (A") (A") (A") (A')
                 (A') (A") (A') (A') (A') (A") (A') (A') (A") (A")
                 (A') (A") (A") (A") (A') (A') (A") (A') (A") (A')
                 (A') (A") (A') (A") (A') (A") (A') (A") (A') (A")
                 (A') (A') (A") (A") (A') (A") (A") (A') (A') (A")
                 (A") (A') (A") (A") (A") (A') (A') (A') (A') (A")
                 (A') (A") (A') (A') (A") (A") (A') (A") (A') (A")
                 (A') (A") (A') (A") (A') (A") (A') (A") (A") (A')
                 (A") (A') (A") (A') (A") (A') (A") (A") (A') (A')
                 (A') (A") (A") (A') (A') (A") (A') (A") (A') (A')
                 (A") (A') (A") (A') (A") (A') (A") (A') (A') (A")
                 (A') (A") (A') (A') (A") (A") (A') (A") (A') (A')
[...]
                 (A") (A") (A')
       Virtual   (A') (A") (A") (A') (A') (A") (A') (A') (A') (A")
                 (A") (A') (A") (A') (A") (A') (A") (A") (A') (A")
                 (A') (A') (A") (A') (A") (A') (A') (A') (A') (A")
                 (A") (A") (A") (A') (A') (A") (A') (A") (A') (A")
                 (A') (A') (A') (A") (A') (A") (A") (A') (A') (A")
                 (A") (A') (A') (A") (A') (A") (A") (A") (A') (A")
                 (A') (A') (A') (A') (A') (A") (A') (A') (A") (A")
                 (A") (A') (A') (A') (A") (A') (A") (A") (A") (A')
                 (A') (A") (A') (A") (A") (A') (A") (A') (A') (A')
                 (A') (A') (A") (A") (A") (A") (A') (A") (A') (A")
                 (A') (A') (A') (A") (A") (A') (A') (A") (A') (A")
                 (A') (A") (A") (A") (A') (A') (A") (A') (A') (A")
                 (A') (A") (A") (A') (A') (A") (A') (A") (A') (A")
                 (A") (A') (A') (A') (A') (A") (A") (A") (A') (A")
                 (A') (A") (A') (A") (A') (A') (A") (A") (A') (A")
                 (A') (A") (A') (A") (A') (A') (A") (A') (A") (A")
                 (A') (A") (A') (A') (A") (A") (A') (A") (A') (A")
                 (A') (A') (A") (A') (A') (A") (A") (A') (A') (A')
                 (A") (A') (A") (A") (A") (A") (A') (A") (A') (A')
                 (A") (A') (A") (A') (A') (A') (A") (A') (A") (A')
                 (A") (A") (A') (A') (A") (A") (A') (A') (A") (A')
                 (A') (A') (A') (A") (A") (A") (A") (A') (A') (A")
                 (A') (A") (A") (A') (A") (A') (A") (A') (A") (A')
                 (A") (A') (A') (A") (A') (A") (A") (A') (A') (A")
                 (A") (A') (A') (A") (A") (A') (A") (A") (A") (A')
                 (A') (A") (A') (A') (A") (A') (A') (A") (A') (A")
                 (A") (A') (A") (A') (A') (A") (A") (A") (A') (A')
                 (A") (A') (A') (A") (A") (A") (A') (A") (A') (A')
                 (A") (A') (A") (A') (A") (A') (A') (A') (A") (A')
                 (A") (A") (A') (A') (A") (A") (A') (A") (A') (A")
                 (A') (A') (A") (A") (A') (A') (A") (A') (A') (A')
                 (A") (A") (A') (A") (A') (A") (A') (A") (A') (A')
                 (A') (A") (A") (A") (A') (A") (A') (A') (A') (A")
                 (A") (A') (A") (A') (A') (A") (A') (A") (A") (A')
                 (A') (A") (A') (A") (A") (A') (A') (A") (A') (A")
                 (A') (A") (A') (A") (A') (A") (A") (A') (A') (A")
                 (A') (A") (A') (A') (A") (A") (A') (A") (A') (A')
                 (A") (A') (A") (A') (A') (A") (A') (A") (A') (A")
                 (A") (A') (A") (A') (A") (A') (A") (A') (A') (A")
                 (A") (A') (A") (A') (A') (A") (A") (A') (A') (A")
                 (A') (A") (A') (A") (A') (A') (A")
 The electronic state is 1-A'.
 Alpha  occ. eigenvalues --  -10.18931 -10.18930 -10.18896 -10.18895 -10.18848
 Alpha  occ. eigenvalues --  -10.18848 -10.18813 -10.18813 -10.17956 -10.17955
 Alpha  occ. eigenvalues --  -10.17920 -10.17920 -10.17919 -10.17919 -10.17875
 Alpha  occ. eigenvalues --  -10.17875 -10.17863 -10.17863 -10.17808 -10.17808
 Alpha  occ. eigenvalues --  -10.17781 -10.17781  -0.89340  -0.87865  -0.85549
 Alpha  occ. eigenvalues --   -0.82415  -0.79820  -0.78521  -0.78314  -0.75991
 Alpha  occ. eigenvalues --   -0.74255  -0.72901  -0.69196  -0.67344  -0.62728
 Alpha  occ. eigenvalues --   -0.62370  -0.61108  -0.59964  -0.59301  -0.57689
 Alpha  occ. eigenvalues --   -0.52709  -0.52573  -0.52293  -0.49654  -0.48513
 Alpha  occ. eigenvalues --   -0.47160  -0.46110  -0.45590  -0.45476  -0.43928
 Alpha  occ. eigenvalues --   -0.43182  -0.42578  -0.41808  -0.41572  -0.41386
 Alpha  occ. eigenvalues --   -0.40692  -0.40405  -0.39579  -0.38193  -0.36732
 Alpha  occ. eigenvalues --   -0.36341  -0.35550  -0.34094  -0.33809  -0.33058
 Alpha  occ. eigenvalues --   -0.32930  -0.31612  -0.29665  -0.28406  -0.26623
 Alpha  occ. eigenvalues --   -0.24364  -0.22582  -0.17855
 Alpha virt. eigenvalues --   -0.09755  -0.04464  -0.02747  -0.00147   0.02073
 Alpha virt. eigenvalues --    0.02370   0.03189   0.04746   0.04859   0.04871
 Alpha virt. eigenvalues --    0.06161   0.06575   0.07968   0.08162   0.08303
 Alpha virt. eigenvalues --    0.09607   0.10049   0.11524   0.11533   0.13796
 Alpha virt. eigenvalues --    0.14111   0.14670   0.18092   0.18194   0.18832
 Alpha virt. eigenvalues --    0.19391   0.22815   0.23002   0.24379   0.24942
 Alpha virt. eigenvalues --    0.25581   0.27528   0.27575   0.28012   0.28228
 Alpha virt. eigenvalues --    0.28947   0.29389   0.30158   0.30759   0.31175
 Alpha virt. eigenvalues --    0.32897   0.34528   0.36420   0.36484   0.37134
 Alpha virt. eigenvalues --    0.37503   0.37629   0.37651   0.38116   0.38643
 Alpha virt. eigenvalues --    0.39094   0.39439   0.39739   0.40236   0.40435
 Alpha virt. eigenvalues --    0.41918   0.41926   0.41940   0.42289   0.42318
 Alpha virt. eigenvalues --    0.42643   0.43748   0.44233   0.44835   0.45295
 Alpha virt. eigenvalues --    0.45683   0.45924   0.45953   0.46379   0.47165
 Alpha virt. eigenvalues --    0.47805   0.47809   0.47978   0.48073   0.48231
 Alpha virt. eigenvalues --    0.48568   0.49414   0.49572   0.51377   0.51846
 Alpha virt. eigenvalues --    0.52370   0.53118   0.53671   0.55998   0.57923
 Alpha virt. eigenvalues --    0.57955   0.59048   0.59201   0.60433   0.60585
 Alpha virt. eigenvalues --    0.60693   0.61101   0.61690   0.62105   0.62173
 Alpha virt. eigenvalues --    0.63432   0.63481   0.64458   0.64535   0.65533
 Alpha virt. eigenvalues --    0.66693   0.66910   0.67680   0.67724   0.70658
 Alpha virt. eigenvalues --    0.71305   0.71405   0.71494   0.72803   0.73989
 Alpha virt. eigenvalues --    0.75405   0.75894   0.76289   0.77801   0.77809
 Alpha virt. eigenvalues --    0.78943   0.79160   0.79723   0.81162   0.81509
 Alpha virt. eigenvalues --    0.82881   0.83001   0.84383   0.84585   0.84713
 Alpha virt. eigenvalues --    0.88087   0.89711   0.89765   0.91536   0.92083
 Alpha virt. eigenvalues --    0.92578   0.93749   0.95806   0.96107   0.96442
 Alpha virt. eigenvalues --    0.96590   0.96905   0.98547   1.00356   1.01118
 Alpha virt. eigenvalues --    1.02686   1.03027   1.03354   1.04405   1.05244
 Alpha virt. eigenvalues --    1.05439   1.05525   1.05950   1.07395   1.07547
 Alpha virt. eigenvalues --    1.07686   1.08438   1.10005   1.10036   1.12070
 Alpha virt. eigenvalues --    1.13223   1.13544   1.13650   1.14526   1.15341
 Alpha virt. eigenvalues --    1.17432   1.18332   1.19657   1.20432   1.23014
 Alpha virt. eigenvalues --    1.23618   1.27884   1.28234   1.30579   1.32076
 Alpha virt. eigenvalues --    1.32743   1.34942   1.37641   1.39236   1.39896
 Alpha virt. eigenvalues --    1.39942   1.40725   1.42751   1.43476   1.43554
 Alpha virt. eigenvalues --    1.45057   1.46086   1.47119   1.47538   1.48841
 Alpha virt. eigenvalues --    1.49280   1.49417   1.50258   1.50674   1.52268
 Alpha virt. eigenvalues --    1.52650   1.53402   1.54331   1.54372   1.54781
 Alpha virt. eigenvalues --    1.54807   1.57107   1.57715   1.58569   1.59882
 Alpha virt. eigenvalues --    1.60106   1.62692   1.63242   1.64856   1.66641
 Alpha virt. eigenvalues --    1.69292   1.69605   1.69709   1.70649   1.71804
 Alpha virt. eigenvalues --    1.72459   1.72619   1.73075   1.73096   1.73680
 Alpha virt. eigenvalues --    1.77494   1.78519   1.79157   1.79419   1.80511
 Alpha virt. eigenvalues --    1.81616   1.81887   1.82058   1.83581   1.84039
 Alpha virt. eigenvalues --    1.85487   1.87392   1.87456   1.87577   1.87728
 Alpha virt. eigenvalues --    1.88131   1.88613   1.90743   1.91387   1.92190
 Alpha virt. eigenvalues --    1.92193   1.92572   1.92670   1.93517   1.93938
 Alpha virt. eigenvalues --    1.94544   1.95483   1.97262   1.99429   2.00088
 Alpha virt. eigenvalues --    2.00602   2.01362   2.03019   2.05757   2.08293
 Alpha virt. eigenvalues --    2.09111   2.09256   2.09792   2.12192   2.14098
 Alpha virt. eigenvalues --    2.15528   2.15584   2.17200   2.19751   2.20833
 Alpha virt. eigenvalues --    2.21576   2.22525   2.23381   2.24503   2.26441
 Alpha virt. eigenvalues --    2.26972   2.27242   2.27719   2.28046   2.29391
 Alpha virt. eigenvalues --    2.33301   2.35725   2.39155   2.39384   2.40817
 Alpha virt. eigenvalues --    2.42649   2.43076   2.45776   2.45994   2.46870
 Alpha virt. eigenvalues --    2.51623   2.51954   2.53354   2.53485   2.55138
 Alpha virt. eigenvalues --    2.56159   2.58701   2.58838   2.59764   2.59776
 Alpha virt. eigenvalues --    2.60682   2.61147   2.61719   2.62222   2.63349
 Alpha virt. eigenvalues --    2.63999   2.64478   2.66054   2.66794   2.67121
 Alpha virt. eigenvalues --    2.67374   2.68356   2.68872   2.68876   2.69372
 Alpha virt. eigenvalues --    2.69557   2.69907   2.70083   2.70281   2.73482
 Alpha virt. eigenvalues --    2.74771   2.74836   2.76066   2.77101   2.77577
 Alpha virt. eigenvalues --    2.78232   2.78455   2.78850   2.80822   2.82359
 Alpha virt. eigenvalues --    2.85535   2.85993   2.86737   2.87294   2.90966
 Alpha virt. eigenvalues --    2.91783   2.92195   2.93676   2.95232   2.95887
 Alpha virt. eigenvalues --    2.99270   2.99858   3.03165   3.05604   3.06852
 Alpha virt. eigenvalues --    3.07371   3.15988   3.16029   3.16647   3.19843
 Alpha virt. eigenvalues --    3.20017   3.23601   3.29134   3.29680   3.31610
 Alpha virt. eigenvalues --    3.35095   3.35458   3.35677   3.35858   3.38023
 Alpha virt. eigenvalues --    3.39887   3.41413   3.44960   3.45362   3.47993
 Alpha virt. eigenvalues --    3.48278   3.50401   3.53073   3.57439   3.58649
 Alpha virt. eigenvalues --    3.61466   3.62620   3.63208   3.63698   3.65910
 Alpha virt. eigenvalues --    3.67534   3.67678   4.00384   4.00442   4.01859
 Alpha virt. eigenvalues --    4.02182   4.16133   4.16678   4.17360   4.21240
 Alpha virt. eigenvalues --    4.22396   4.22517   4.25488   4.38492   4.62290
 Alpha virt. eigenvalues --    4.79179   4.79740   4.80562   4.82562   4.83014
 Alpha virt. eigenvalues --   23.39176  23.54541  23.69085  23.77378  23.80419
 Alpha virt. eigenvalues --   23.81537  23.86099  23.89067  23.89154  23.92210
 Alpha virt. eigenvalues --   23.97563  23.98365  24.09049  24.09932  24.10529
 Alpha virt. eigenvalues --   24.12220  24.13779  24.14375  24.15775  24.15810
 Alpha virt. eigenvalues --   24.20452  24.20497
          Condensed to atoms (all electrons):
 Mulliken charges:
               1
     1  C    0.000000
     2  C    0.000000
     3  C    0.000000
     4  C    0.000000
     5  C    0.000000
     6  C    0.000000
     7  C    0.000000
     8  C    0.000000
     9  C    0.000000
    10  C    0.000000
    11  H    0.000000
    12  H    0.000000
    13  H    0.000000
    14  H    0.000000
    15  H    0.000000
    16  H    0.000000
    17  C    0.000000
    18  C    0.000000
    19  C    0.000000
    20  C    0.000000
    21  H    0.000000
    22  H    0.000000
    23  C    0.000000
    24  C    0.000000
    25  C    0.000000
    26  C    0.000000
    27  H    0.000000
    28  H    0.000000
    29  C    0.000000
    30  C    0.000000
    31  C    0.000000
    32  C    0.000000
    33  H    0.000000
    34  H    0.000000
    35  H    0.000000
    36  H    0.000000
    37  C   -0.059168
    38  C   -0.059168
    39  C   -0.055977
    40  C   -0.055977
    41  C   -0.092198
    42  C   -0.092198
    43  C   -0.016525
    44  C   -0.054498
    45  C   -0.016525
    46  C   -0.054498
    47  H    0.082122
    48  H    0.074853
    49  H    0.074853
    50  H    0.082122
    51  H    0.094847
    52  H    0.094847
    53  C   -0.020341
    54  C   -0.054498
    55  C   -0.020341
    56  C   -0.054498
    57  H    0.073428
    58  H    0.073428
    59  C   -0.016525
    60  C   -0.059168
    61  C   -0.016525
    62  C   -0.059168
    63  H    0.074853
    64  H    0.074853
    65  C   -0.055977
    66  C   -0.092198
    67  C   -0.055977
    68  C   -0.092198
    69  H    0.082122
    70  H    0.094847
    71  H    0.094847
    72  H    0.082122
 Sum of Mulliken charges =   0.00000
 Mulliken charges with hydrogens summed into heavy atoms:
               1
     1  C    0.000000
     2  C    0.000000
     3  C    0.000000
     4  C    0.000000
     5  C    0.000000
     6  C    0.000000
     7  C    0.000000
     8  C    0.000000
     9  C    0.000000
    10  C    0.000000
    17  C    0.000000
    18  C    0.000000
    19  C    0.000000
    20  C    0.000000
    23  C    0.000000
    24  C    0.000000
    25  C    0.000000
    26  C    0.000000
    29  C    0.000000
    30  C    0.000000
    31  C    0.000000
    32  C    0.000000
    37  C   -0.059168
    38  C   -0.059168
    39  C    0.026144
    40  C    0.026144
    41  C    0.002649
    42  C    0.002649
    43  C    0.058328
    44  C   -0.054498
    45  C    0.058328
    46  C   -0.054498
    53  C    0.053087
    54  C   -0.054498
    55  C    0.053087
    56  C   -0.054498
    59  C    0.058328
    60  C   -0.059168
    61  C    0.058328
    62  C   -0.059168
    65  C    0.026144
    66  C    0.002649
    67  C    0.026144
    68  C    0.002649
         Mulliken charges condensed to fragments:
      1      0.000000
      2      0.000000
 Electronic spatial extent (au):  <R**2>=          14805.2137
 Charge=              0.0000 electrons
 Dipole moment (field-independent basis, Debye):
    X=              0.0000    Y=              0.0000    Z=              0.0000  Tot=              0.0000
 Quadrupole moment (field-independent basis, Debye-Ang):
   XX=           -136.3921   YY=           -110.7480   ZZ=           -109.0115
   XY=              0.0000   XZ=              0.0000   YZ=              0.0000
 Traceless Quadrupole moment (field-independent basis, Debye-Ang):
   XX=            -17.6749   YY=              7.9692   ZZ=              9.7057
   XY=              0.0000   XZ=              0.0000   YZ=              0.0000
 Octapole moment (field-independent basis, Debye-Ang**2):
  XXX=            940.3266  YYY=            763.5292  ZZZ=              0.0000  XYY=            254.5097
  XXY=            313.4422  XXZ=              0.0000  XZZ=            250.5190  YZZ=            250.5189
  YYZ=              0.0000  XYZ=              0.0000
 Hexadecapole moment (field-independent basis, Debye-Ang**3):
 XXXX=          -4476.3273 YYYY=          -4626.0451 ZZZZ=         -10461.4324 XXXY=          -2160.9617
 XXXZ=              0.0000 YYYX=          -1754.6641 YYYZ=              0.0000 ZZZX=              0.0000
 ZZZY=              0.0000 XXYY=          -1561.6239 XXZZ=          -2783.6488 YYZZ=          -2544.9312
 XXYZ=              0.0000 YYXZ=              0.0000 ZZXY=           -575.7168
 N-N= 1.494327112429D+03 E-N=-4.953709176421D+03  KE= 8.433374905210D+02
 Symmetry A'   KE= 4.567052305497D+02
 Symmetry A"   KE= 3.866322599712D+02
 No NMR shielding tensors so no spin-rotation constants.
 Leave Link  601 at Wed Sep 27 16:56:41 2023, MaxMem=  3221225472 cpu:              19.8 elap:               0.5
 (Enter /home/center/opt/aarch64/apps/gaussian16/c01/g16/l122.exe)
 CPIOFr:  IOpCl= 0 IRwI=-1 IRwCP=  731 ICalc=  4 LCPTot=     1419224 Len1MO=     3708034 IndFrg=    19959394
 Restoring MOs from calculation   1 to rwf.
 CPIOFr:  IOpCl= 0 IRwI=-2 IRwCP=  731 ICalc=  0 LCPTot=     1419224 Len1MO=     3708034 IndFrg=     5127258
 Counterpoise corrected energy =   -1694.044842451932
                   BSSE energy =       0.000618056731
              sum of fragments =   -1694.039683044256
           complexation energy =      -3.63 kcal/mole (raw)
           complexation energy =      -3.24 kcal/mole (corrected)
 Leave Link  122 at Wed Sep 27 16:56:44 2023, MaxMem=  3221225472 cpu:               8.3 elap:               0.4
 (Enter /home/center/opt/aarch64/apps/gaussian16/c01/g16/l9999.exe)

 Test job not archived.
 1\1\GINC-FX0528\SP\RB3LYP\6-311G(d,p)\C44H28\Z40145W\27-Sep-2023\0\\#P
  TEST b3lyp/6-311G** EmpiricalDispersion=GD3 counterpoise=2\\pentacene
 _A1=0_A2=0_A3=45_p2\\0,1\C,0,-0.5039478476,0.5239478476,-3.6612755801\
 C,0,0.5239480325,-0.5039480325,-3.6612755629\C,0,-0.9861248463,1.00612
 48463,-4.9235927708\C,0,1.0061250889,-0.9861250889,-4.9235926697\C,0,-
 0.4963213507,0.5163213507,-6.096356521\C,0,0.5163216812,-0.4963216812,
 -6.0963564796\C,0,-0.9844684311,1.0044684311,-2.4533174875\C,0,-0.5044
 88426,0.524488426,-1.2140288145\C,0,1.0044685359,-0.9844685359,-2.4533
 173917\C,0,0.5244885437,-0.5044885437,-1.2140288362\H,0,-1.7533559667,
 1.7733559667,-4.9232600459\H,0,-1.7521866813,1.7721866813,-2.453928581
 5\H,0,1.7721859268,-1.7521859268,-2.4539284818\H,0,1.7733558421,-1.753
 3558421,-4.9232597785\H,0,0.8905568758,-0.8705568758,-7.0425276922\H,0
 ,-0.8705565046,0.8905565046,-7.042527775\C,0,-0.9848184961,1.004818496
 1,0.0099998782\C,0,-0.5044883957,0.5244883957,1.2340295553\C,0,1.00481
 85643,-0.9848185643,0.0099998696\C,0,0.5244885146,-0.5044885146,1.2340
 295261\H,0,-1.7524699697,1.7724699697,0.0099999205\H,0,1.772468921,-1.
 752468921,0.0099999641\C,0,-0.9844683048,1.0044683048,2.4733171385\C,0
 ,-0.5039477114,0.5239477114,3.681276331\C,0,1.0044684211,-0.9844684211
 ,2.4733170835\C,0,0.5239479079,-0.5039479079,3.6812763217\H,0,-1.75218
 65527,1.7721865527,2.4739285326\H,0,1.7721858092,-1.7521858092,2.47392
 83796\C,0,-0.9861245177,1.0061245177,4.9435920588\C,0,-0.4963209372,0.
 5163209372,6.116356633\C,0,1.0061247659,-0.9861247659,4.9435919377\C,0
 ,0.5163212637,-0.4963212637,6.1163566075\H,0,-1.7533556504,1.773355650
 4,4.9432601504\H,0,-0.8705567426,0.8905567426,7.0625274368\H,0,0.89055
 70967,-0.8705570967,7.0625272142\H,0,1.7733555414,-1.7533555414,4.9432
 599297\C,0,5.9960521524,0.5239478476,-3.6612755801\C,0,7.0239480325,-0
 .5039480325,-3.6612755629\C,0,5.5138751537,1.0061248463,-4.9235927708\
 C,0,7.5061250889,-0.9861250889,-4.9235926697\C,0,6.0036786493,0.516321
 3507,-6.096356521\C,0,7.0163216812,-0.4963216812,-6.0963564796\C,0,5.5
 155315689,1.0044684311,-2.4533174875\C,0,5.995511574,0.524488426,-1.21
 40288145\C,0,7.5044685359,-0.9844685359,-2.4533173917\C,0,7.0244885437
 ,-0.5044885437,-1.2140288362\H,0,4.7466440333,1.7733559667,-4.92326004
 59\H,0,4.7478133187,1.7721866813,-2.4539285815\H,0,8.2721859268,-1.752
 1859268,-2.4539284818\H,0,8.2733558421,-1.7533558421,-4.9232597785\H,0
 ,7.3905568758,-0.8705568758,-7.0425276922\H,0,5.6294434954,0.890556504
 6,-7.042527775\C,0,5.5151815039,1.0048184961,0.0099998782\C,0,5.995511
 6043,0.5244883957,1.2340295553\C,0,7.5048185643,-0.9848185643,0.009999
 8696\C,0,7.0244885146,-0.5044885146,1.2340295261\H,0,4.7475300303,1.77
 24699697,0.0099999205\H,0,8.272468921,-1.752468921,0.0099999641\C,0,5.
 5155316952,1.0044683048,2.4733171385\C,0,5.9960522886,0.5239477114,3.6
 81276331\C,0,7.5044684211,-0.9844684211,2.4733170835\C,0,7.0239479079,
 -0.5039479079,3.6812763217\H,0,4.7478134473,1.7721865527,2.4739285326\
 H,0,8.2721858092,-1.7521858092,2.4739283796\C,0,5.5138754823,1.0061245
 177,4.9435920588\C,0,6.0036790628,0.5163209372,6.116356633\C,0,7.50612
 47659,-0.9861247659,4.9435919377\C,0,7.0163212637,-0.4963212637,6.1163
 566075\H,0,4.7466443496,1.7733556504,4.9432601504\H,0,5.6294432574,0.8
 905567426,7.0625274368\H,0,7.3905570967,-0.8705570967,7.0625272142\H,0
 ,8.2733555414,-1.7533555414,4.9432599297\\Version=Fujitsu-Arm-G16RevC.
 01\State=1-A'\HF=-847.0198415\RMSD=3.180e-09\Dipole=-0.0000009,0.00000
 1,0.\Quadrupole=-8.2407719,-6.0285037,14.2692757,-17.9698607,0.,0.\PG=
 CS [SG(C4H4),X(C40H24)]\\@


 CHINESE FORTUNE COOKIE OF JAN 1 1967 SAY....
 ALL THINGS ARE DIFFICULT BEFORE THEY ARE EASY.
 WE LEARN SO LITTLE AND FORGET SO MUCH.
 YOU WILL OVERCOME OBSTACLES TO ACHIEVE SUCCESS.
 AH SO.
 Job cpu time:       0 days  3 hours  7 minutes 13.0 seconds.
 Elapsed time:       0 days  0 hours  4 minutes 56.8 seconds.
 File lengths (MBytes):  RWF=    718 Int=      0 D2E=      0 Chk=    208 Scr=      1
 Normal termination of Gaussian 16 at Wed Sep 27 16:56:50 2023.
