 Entering Gaussian System, Link 0=g16
 Initial command:
 /home/center/opt/aarch64/apps/gaussian16/c01/g16/l1.exe "/data/tmp/Gtmp/1006935/Gau-48.inp" -scrdir="/data/tmp/Gtmp/1006935/"
 Entering Link 1 = /home/center/opt/aarch64/apps/gaussian16/c01/g16/l1.exe PID=        49.
  
 Copyright (c) 1988-2019, Gaussian, Inc.  All Rights Reserved.
  
 This is part of the Gaussian(R) 16 program.  It is based on
 the Gaussian(R) 09 system (copyright 2009, Gaussian, Inc.),
 the Gaussian(R) 03 system (copyright 2003, Gaussian, Inc.),
 the Gaussian(R) 98 system (copyright 1998, Gaussian, Inc.),
 the Gaussian(R) 94 system (copyright 1995, Gaussian, Inc.),
 the Gaussian 92(TM) system (copyright 1992, Gaussian, Inc.),
 the Gaussian 90(TM) system (copyright 1990, Gaussian, Inc.),
 the Gaussian 88(TM) system (copyright 1988, Gaussian, Inc.),
 the Gaussian 86(TM) system (copyright 1986, Carnegie Mellon
 University), and the Gaussian 82(TM) system (copyright 1983,
 Carnegie Mellon University). Gaussian is a federally registered
 trademark of Gaussian, Inc.
  
 This software contains proprietary and confidential information,
 including trade secrets, belonging to Gaussian, Inc.
  
 This software is provided under written license and may be
 used, copied, transmitted, or stored only in accord with that
 written license.
  
 The following legend is applicable only to US Government
 contracts under FAR:
  
                    RESTRICTED RIGHTS LEGEND
  
 Use, reproduction and disclosure by the US Government is
 subject to restrictions as set forth in subparagraphs (a)
 and (c) of the Commercial Computer Software - Restricted
 Rights clause in FAR 52.227-19.
  
 Gaussian, Inc.
 340 Quinnipiac St., Bldg. 40, Wallingford CT 06492
  
  
 ---------------------------------------------------------------
 Warning -- This program may not be used in any manner that
 competes with the business of Gaussian, Inc. or will provide
 assistance to any competitor of Gaussian, Inc.  The licensee
 of this program is prohibited from giving any competitor of
 Gaussian, Inc. access to this program.  By using this program,
 the user acknowledges that Gaussian, Inc. is engaged in the
 business of creating and licensing software in the field of
 computational chemistry and represents and warrants to the
 licensee that it is not a competitor of Gaussian, Inc. and that
 it will not use this program in any manner prohibited above.
 ---------------------------------------------------------------
  

 Cite this work as:
 Gaussian 16, Revision C.01,
 M. J. Frisch, G. W. Trucks, H. B. Schlegel, G. E. Scuseria, 
 M. A. Robb, J. R. Cheeseman, G. Scalmani, V. Barone, 
 G. A. Petersson, H. Nakatsuji, X. Li, M. Caricato, A. V. Marenich, 
 J. Bloino, B. G. Janesko, R. Gomperts, B. Mennucci, H. P. Hratchian, 
 J. V. Ortiz, A. F. Izmaylov, J. L. Sonnenberg, D. Williams-Young, 
 F. Ding, F. Lipparini, F. Egidi, J. Goings, B. Peng, A. Petrone, 
 T. Henderson, D. Ranasinghe, V. G. Zakrzewski, J. Gao, N. Rega, 
 G. Zheng, W. Liang, M. Hada, M. Ehara, K. Toyota, R. Fukuda, 
 J. Hasegawa, M. Ishida, T. Nakajima, Y. Honda, O. Kitao, H. Nakai, 
 T. Vreven, K. Throssell, J. A. Montgomery, Jr., J. E. Peralta, 
 F. Ogliaro, M. J. Bearpark, J. J. Heyd, E. N. Brothers, K. N. Kudin, 
 V. N. Staroverov, T. A. Keith, R. Kobayashi, J. Normand, 
 K. Raghavachari, A. P. Rendell, J. C. Burant, S. S. Iyengar, 
 J. Tomasi, M. Cossi, J. M. Millam, M. Klene, C. Adamo, R. Cammi, 
 J. W. Ochterski, R. L. Martin, K. Morokuma, O. Farkas, 
 J. B. Foresman, and D. J. Fox, Gaussian, Inc., Wallingford CT, 2019.
 
 ************************************************
 Gaussian 16:  Fujitsu-Arm-G16RevC.01  3-Jul-2019
                   27-Sep-2023 
 ************************************************
 %mem=24GB
 %nproc=42
 Will use up to   42 processors via shared memory.
 -------------------------------------------------------------
 #P TEST b3lyp/6-311G** EmpiricalDispersion=GD3 counterpoise=2
 -------------------------------------------------------------
 1/38=1,62=2,172=1/1;
 2/12=2,17=6,18=5,40=1/2;
 1/38=1,53=2,62=2,63=1/22;
 3/5=4,6=6,7=101,11=2,25=1,30=1,74=-5,124=31/1,2,3;
 4//1;
 5/5=2,38=5/2;
 6/7=2,8=2,9=2,10=2,28=1/1;
 1/53=2,62=2,63=1/22;
 3/5=7,6=11,7=101,11=2,25=1,30=1,74=-5,82=7,124=31/1,2,3;
 4//1;
 5/5=2,38=5/2;
 6/7=2,8=2,9=2,10=2,28=1/1;
 1/53=2,62=2,63=1/22(-4);
 99/5=1,9=1/99;
 Leave Link    1 at Wed Sep 27 16:37:39 2023, MaxMem=  3221225472 cpu:               6.1 elap:               0.2
 (Enter /home/center/opt/aarch64/apps/gaussian16/c01/g16/l101.exe)
 ----------------------------
 pentacene_A1=0_A2=0_A3=45_t1
 ----------------------------
 Symbolic Z-matrix:
 Charge =  0 Multiplicity = 1 in supermolecule
 Charge =  0 Multiplicity = 1 in fragment      1.
 Charge =  0 Multiplicity = 1 in fragment      2.
 C(Fragment=1)        -0.50395   0.52395  -3.66128 
 C(Fragment=1)         0.52395  -0.50395  -3.66128 
 C(Fragment=1)        -0.98612   1.00612  -4.92359 
 C(Fragment=1)         1.00613  -0.98613  -4.92359 
 C(Fragment=1)        -0.49632   0.51632  -6.09636 
 C(Fragment=1)         0.51632  -0.49632  -6.09636 
 C(Fragment=1)        -0.98447   1.00447  -2.45332 
 C(Fragment=1)        -0.50449   0.52449  -1.21403 
 C(Fragment=1)         1.00447  -0.98447  -2.45332 
 C(Fragment=1)         0.52449  -0.50449  -1.21403 
 H(Fragment=1)        -1.75336   1.77336  -4.92326 
 H(Fragment=1)        -1.75219   1.77219  -2.45393 
 H(Fragment=1)         1.77219  -1.75219  -2.45393 
 H(Fragment=1)         1.77336  -1.75336  -4.92326 
 H(Fragment=1)         0.89056  -0.87056  -7.04253 
 H(Fragment=1)        -0.87056   0.89056  -7.04253 
 C(Fragment=1)        -0.98482   1.00482   0.01 
 C(Fragment=1)        -0.50449   0.52449   1.23403 
 C(Fragment=1)         1.00482  -0.98482   0.01 
 C(Fragment=1)         0.52449  -0.50449   1.23403 
 H(Fragment=1)        -1.75247   1.77247   0.01 
 H(Fragment=1)         1.77247  -1.75247   0.01 
 C(Fragment=1)        -0.98447   1.00447   2.47332 
 C(Fragment=1)        -0.50395   0.52395   3.68128 
 C(Fragment=1)         1.00447  -0.98447   2.47332 
 C(Fragment=1)         0.52395  -0.50395   3.68128 
 H(Fragment=1)        -1.75219   1.77219   2.47393 
 H(Fragment=1)         1.77219  -1.75219   2.47393 
 C(Fragment=1)        -0.98612   1.00612   4.94359 
 C(Fragment=1)        -0.49632   0.51632   6.11636 
 C(Fragment=1)         1.00612  -0.98612   4.94359 
 C(Fragment=1)         0.51632  -0.49632   6.11636 
 H(Fragment=1)        -1.75336   1.77336   4.94326 
 H(Fragment=1)        -0.87056   0.89056   7.06253 
 H(Fragment=1)         0.89056  -0.87056   7.06253 
 H(Fragment=1)         1.77336  -1.75336   4.94326 
 C(Fragment=2)         3.27395   4.77395  -3.66128 
 C(Fragment=2)         2.24605   3.74605  -3.66128 
 C(Fragment=2)         3.75612   5.25612  -4.92359 
 C(Fragment=2)         1.76387   3.26387  -4.92359 
 C(Fragment=2)         3.26632   4.76632  -6.09636 
 C(Fragment=2)         2.25368   3.75368  -6.09636 
 C(Fragment=2)         3.75447   5.25447  -2.45332 
 C(Fragment=2)         3.27449   4.77449  -1.21403 
 C(Fragment=2)         1.76553   3.26553  -2.45332 
 C(Fragment=2)         2.24551   3.74551  -1.21403 
 H(Fragment=2)         4.52336   6.02336  -4.92326 
 H(Fragment=2)         4.52219   6.02219  -2.45393 
 H(Fragment=2)         0.99781   2.49781  -2.45393 
 H(Fragment=2)         0.99664   2.49664  -4.92326 
 H(Fragment=2)         1.87944   3.37944  -7.04253 
 H(Fragment=2)         3.64056   5.14056  -7.04253 
 C(Fragment=2)         3.75482   5.25482   0.01 
 C(Fragment=2)         3.27449   4.77449   1.23403 
 C(Fragment=2)         1.76518   3.26518   0.01 
 C(Fragment=2)         2.24551   3.74551   1.23403 
 H(Fragment=2)         4.52247   6.02247   0.01 
 H(Fragment=2)         0.99753   2.49753   0.01 
 C(Fragment=2)         3.75447   5.25447   2.47332 
 C(Fragment=2)         3.27395   4.77395   3.68128 
 C(Fragment=2)         1.76553   3.26553   2.47332 
 C(Fragment=2)         2.24605   3.74605   3.68128 
 H(Fragment=2)         4.52219   6.02219   2.47393 
 H(Fragment=2)         0.99781   2.49781   2.47393 
 C(Fragment=2)         3.75612   5.25612   4.94359 
 C(Fragment=2)         3.26632   4.76632   6.11636 
 C(Fragment=2)         1.76388   3.26388   4.94359 
 C(Fragment=2)         2.25368   3.75368   6.11636 
 H(Fragment=2)         4.52336   6.02336   4.94326 
 H(Fragment=2)         3.64056   5.14056   7.06253 
 H(Fragment=2)         1.87944   3.37944   7.06253 
 H(Fragment=2)         0.99664   2.49664   4.94326 
 
 ITRead=  0  0  0  0  0  0  0  0  0  0  0  0  0  0  0  0  0  0  0  0
 ITRead=  0  0  0  0  0  0  0  0  0  0  0  0  0  0  0  0  0  0  0  0
 ITRead=  0  0  0  0  0  0  0  0  0  0  0  0  0  0  0  0  0  0  0  0
 ITRead=  0  0  0  0  0  0  0  0  0  0  0  0
 MicOpt= -1 -1 -1 -1 -1 -1 -1 -1 -1 -1 -1 -1 -1 -1 -1 -1 -1 -1 -1 -1
 MicOpt= -1 -1 -1 -1 -1 -1 -1 -1 -1 -1 -1 -1 -1 -1 -1 -1 -1 -1 -1 -1
 MicOpt= -1 -1 -1 -1 -1 -1 -1 -1 -1 -1 -1 -1 -1 -1 -1 -1 -1 -1 -1 -1
 MicOpt= -1 -1 -1 -1 -1 -1 -1 -1 -1 -1 -1 -1
 NAtoms=     72 NQM=       72 NQMF=       0 NMMI=      0 NMMIF=      0
                NMic=       0 NMicF=      0.
                    Isotopes and Nuclear Properties:
 (Nuclear quadrupole moments (NQMom) in fm**2, nuclear magnetic moments (NMagM)
  in nuclear magnetons)

  Atom         1           2           3           4           5           6           7           8           9          10
 IAtWgt=          12          12          12          12          12          12          12          12          12          12
 AtmWgt=  12.0000000  12.0000000  12.0000000  12.0000000  12.0000000  12.0000000  12.0000000  12.0000000  12.0000000  12.0000000
 NucSpn=           0           0           0           0           0           0           0           0           0           0
 AtZEff=   0.0000000   0.0000000   0.0000000   0.0000000   0.0000000   0.0000000   0.0000000   0.0000000   0.0000000   0.0000000
 NQMom=    0.0000000   0.0000000   0.0000000   0.0000000   0.0000000   0.0000000   0.0000000   0.0000000   0.0000000   0.0000000
 NMagM=    0.0000000   0.0000000   0.0000000   0.0000000   0.0000000   0.0000000   0.0000000   0.0000000   0.0000000   0.0000000
 AtZNuc=   6.0000000   6.0000000   6.0000000   6.0000000   6.0000000   6.0000000   6.0000000   6.0000000   6.0000000   6.0000000

  Atom        11          12          13          14          15          16          17          18          19          20
 IAtWgt=           1           1           1           1           1           1          12          12          12          12
 AtmWgt=   1.0078250   1.0078250   1.0078250   1.0078250   1.0078250   1.0078250  12.0000000  12.0000000  12.0000000  12.0000000
 NucSpn=           1           1           1           1           1           1           0           0           0           0
 AtZEff=   0.0000000   0.0000000   0.0000000   0.0000000   0.0000000   0.0000000   0.0000000   0.0000000   0.0000000   0.0000000
 NQMom=    0.0000000   0.0000000   0.0000000   0.0000000   0.0000000   0.0000000   0.0000000   0.0000000   0.0000000   0.0000000
 NMagM=    2.7928460   2.7928460   2.7928460   2.7928460   2.7928460   2.7928460   0.0000000   0.0000000   0.0000000   0.0000000
 AtZNuc=   1.0000000   1.0000000   1.0000000   1.0000000   1.0000000   1.0000000   6.0000000   6.0000000   6.0000000   6.0000000

  Atom        21          22          23          24          25          26          27          28          29          30
 IAtWgt=           1           1          12          12          12          12           1           1          12          12
 AtmWgt=   1.0078250   1.0078250  12.0000000  12.0000000  12.0000000  12.0000000   1.0078250   1.0078250  12.0000000  12.0000000
 NucSpn=           1           1           0           0           0           0           1           1           0           0
 AtZEff=   0.0000000   0.0000000   0.0000000   0.0000000   0.0000000   0.0000000   0.0000000   0.0000000   0.0000000   0.0000000
 NQMom=    0.0000000   0.0000000   0.0000000   0.0000000   0.0000000   0.0000000   0.0000000   0.0000000   0.0000000   0.0000000
 NMagM=    2.7928460   2.7928460   0.0000000   0.0000000   0.0000000   0.0000000   2.7928460   2.7928460   0.0000000   0.0000000
 AtZNuc=   1.0000000   1.0000000   6.0000000   6.0000000   6.0000000   6.0000000   1.0000000   1.0000000   6.0000000   6.0000000

  Atom        31          32          33          34          35          36          37          38          39          40
 IAtWgt=          12          12           1           1           1           1          12          12          12          12
 AtmWgt=  12.0000000  12.0000000   1.0078250   1.0078250   1.0078250   1.0078250  12.0000000  12.0000000  12.0000000  12.0000000
 NucSpn=           0           0           1           1           1           1           0           0           0           0
 AtZEff=   0.0000000   0.0000000   0.0000000   0.0000000   0.0000000   0.0000000   0.0000000   0.0000000   0.0000000   0.0000000
 NQMom=    0.0000000   0.0000000   0.0000000   0.0000000   0.0000000   0.0000000   0.0000000   0.0000000   0.0000000   0.0000000
 NMagM=    0.0000000   0.0000000   2.7928460   2.7928460   2.7928460   2.7928460   0.0000000   0.0000000   0.0000000   0.0000000
 AtZNuc=   6.0000000   6.0000000   1.0000000   1.0000000   1.0000000   1.0000000   6.0000000   6.0000000   6.0000000   6.0000000

  Atom        41          42          43          44          45          46          47          48          49          50
 IAtWgt=          12          12          12          12          12          12           1           1           1           1
 AtmWgt=  12.0000000  12.0000000  12.0000000  12.0000000  12.0000000  12.0000000   1.0078250   1.0078250   1.0078250   1.0078250
 NucSpn=           0           0           0           0           0           0           1           1           1           1
 AtZEff=   0.0000000   0.0000000   0.0000000   0.0000000   0.0000000   0.0000000   0.0000000   0.0000000   0.0000000   0.0000000
 NQMom=    0.0000000   0.0000000   0.0000000   0.0000000   0.0000000   0.0000000   0.0000000   0.0000000   0.0000000   0.0000000
 NMagM=    0.0000000   0.0000000   0.0000000   0.0000000   0.0000000   0.0000000   2.7928460   2.7928460   2.7928460   2.7928460
 AtZNuc=   6.0000000   6.0000000   6.0000000   6.0000000   6.0000000   6.0000000   1.0000000   1.0000000   1.0000000   1.0000000

  Atom        51          52          53          54          55          56          57          58          59          60
 IAtWgt=           1           1          12          12          12          12           1           1          12          12
 AtmWgt=   1.0078250   1.0078250  12.0000000  12.0000000  12.0000000  12.0000000   1.0078250   1.0078250  12.0000000  12.0000000
 NucSpn=           1           1           0           0           0           0           1           1           0           0
 AtZEff=   0.0000000   0.0000000   0.0000000   0.0000000   0.0000000   0.0000000   0.0000000   0.0000000   0.0000000   0.0000000
 NQMom=    0.0000000   0.0000000   0.0000000   0.0000000   0.0000000   0.0000000   0.0000000   0.0000000   0.0000000   0.0000000
 NMagM=    2.7928460   2.7928460   0.0000000   0.0000000   0.0000000   0.0000000   2.7928460   2.7928460   0.0000000   0.0000000
 AtZNuc=   1.0000000   1.0000000   6.0000000   6.0000000   6.0000000   6.0000000   1.0000000   1.0000000   6.0000000   6.0000000

  Atom        61          62          63          64          65          66          67          68          69          70
 IAtWgt=          12          12           1           1          12          12          12          12           1           1
 AtmWgt=  12.0000000  12.0000000   1.0078250   1.0078250  12.0000000  12.0000000  12.0000000  12.0000000   1.0078250   1.0078250
 NucSpn=           0           0           1           1           0           0           0           0           1           1
 AtZEff=   0.0000000   0.0000000   0.0000000   0.0000000   0.0000000   0.0000000   0.0000000   0.0000000   0.0000000   0.0000000
 NQMom=    0.0000000   0.0000000   0.0000000   0.0000000   0.0000000   0.0000000   0.0000000   0.0000000   0.0000000   0.0000000
 NMagM=    0.0000000   0.0000000   2.7928460   2.7928460   0.0000000   0.0000000   0.0000000   0.0000000   2.7928460   2.7928460
 AtZNuc=   6.0000000   6.0000000   1.0000000   1.0000000   6.0000000   6.0000000   6.0000000   6.0000000   1.0000000   1.0000000

  Atom        71          72
 IAtWgt=           1           1
 AtmWgt=   1.0078250   1.0078250
 NucSpn=           1           1
 AtZEff=   0.0000000   0.0000000
 NQMom=    0.0000000   0.0000000
 NMagM=    2.7928460   2.7928460
 AtZNuc=   1.0000000   1.0000000
 Leave Link  101 at Wed Sep 27 16:37:41 2023, MaxMem=  3221225472 cpu:               2.6 elap:               0.1
 (Enter /home/center/opt/aarch64/apps/gaussian16/c01/g16/l202.exe)
 Stoichiometry    C44H28
 Framework group  CS[SG(C4H4),X(C40H24)]
 Deg. of freedom   109
 Full point group                 CS      NOp   2
 Largest Abelian subgroup         CS      NOp   2
 Largest concise Abelian subgroup CS      NOp   2
                         Standard orientation:                         
 ---------------------------------------------------------------------
 Center     Atomic      Atomic             Coordinates (Angstroms)
 Number     Number       Type             X           Y           Z
 ---------------------------------------------------------------------
      1          6           0        0.196502   -2.474874    3.671276
      2          6           0       -1.257162   -2.474874    3.671276
      3          6           0        0.878403   -2.474874    4.933593
      4          6           0       -1.939064   -2.474874    4.933593
      5          6           0        0.185716   -2.474874    6.106357
      6          6           0       -1.246377   -2.474874    6.106357
      7          6           0        0.876061   -2.474874    2.463318
      8          6           0        0.197266   -2.474874    1.224029
      9          6           0       -1.936721   -2.474874    2.463317
     10          6           0       -1.257927   -2.474874    1.224029
     11          1           0        1.963432   -2.474874    4.933260
     12          1           0        1.961778   -2.474874    2.463929
     13          1           0       -3.022437   -2.474874    2.463929
     14          1           0       -3.024092   -2.474874    4.933260
     15          1           0       -1.775626   -2.474874    7.052528
     16          1           0        0.714965   -2.474874    7.052528
     17          6           0        0.876556   -2.474874    0.000000
     18          6           0        0.197266   -2.474874   -1.224029
     19          6           0       -1.937216   -2.474874    0.000000
     20          6           0       -1.257927   -2.474874   -1.224029
     21          1           0        1.962179   -2.474874    0.000000
     22          1           0       -3.022837   -2.474874    0.000000
     23          6           0        0.876061   -2.474874   -2.463318
     24          6           0        0.196502   -2.474874   -3.671276
     25          6           0       -1.936721   -2.474874   -2.463317
     26          6           0       -1.257162   -2.474874   -3.671276
     27          1           0        1.961778   -2.474874   -2.463929
     28          1           0       -3.022437   -2.474874   -2.463929
     29          6           0        0.878403   -2.474874   -4.933593
     30          6           0        0.185716   -2.474874   -6.106357
     31          6           0       -1.939064   -2.474874   -4.933593
     32          6           0       -1.246377   -2.474874   -6.106357
     33          1           0        1.963432   -2.474874   -4.933260
     34          1           0        0.714965   -2.474874   -7.052528
     35          1           0       -1.775626   -2.474874   -7.052528
     36          1           0       -3.024092   -2.474874   -4.933260
     37          6           0        0.530330    3.201706    3.671276
     38          6           0        0.530330    1.748042    3.671276
     39          6           0        0.530330    3.883607    4.933593
     40          6           0        0.530330    1.066140    4.933593
     41          6           0        0.530330    3.190920    6.106357
     42          6           0        0.530330    1.758827    6.106357
     43          6           0        0.530330    3.881265    2.463318
     44          6           0        0.530330    3.202470    1.224029
     45          6           0        0.530330    1.068483    2.463317
     46          6           0        0.530330    1.747277    1.224029
     47          1           0        0.530330    4.968636    4.933260
     48          1           0        0.530330    4.966982    2.463929
     49          1           0        0.530330   -0.017233    2.463929
     50          1           0        0.530330   -0.018888    4.933260
     51          1           0        0.530330    1.229578    7.052528
     52          1           0        0.530330    3.720169    7.052528
     53          6           0        0.530330    3.881760    0.000000
     54          6           0        0.530330    3.202470   -1.224029
     55          6           0        0.530330    1.067988    0.000000
     56          6           0        0.530330    1.747277   -1.224029
     57          1           0        0.530330    4.967383    0.000000
     58          1           0        0.530330   -0.017634    0.000000
     59          6           0        0.530330    3.881265   -2.463318
     60          6           0        0.530330    3.201706   -3.671276
     61          6           0        0.530330    1.068483   -2.463317
     62          6           0        0.530330    1.748042   -3.671276
     63          1           0        0.530330    4.966982   -2.463929
     64          1           0        0.530330   -0.017233   -2.463929
     65          6           0        0.530330    3.883607   -4.933593
     66          6           0        0.530330    3.190920   -6.106357
     67          6           0        0.530330    1.066140   -4.933593
     68          6           0        0.530330    1.758827   -6.106357
     69          1           0        0.530330    4.968636   -4.933260
     70          1           0        0.530330    3.720169   -7.052528
     71          1           0        0.530330    1.229578   -7.052528
     72          1           0        0.530330   -0.018888   -4.933260
 ---------------------------------------------------------------------
 Rotational constants (GHZ):           0.1167911           0.0563744           0.0403400
 Leave Link  202 at Wed Sep 27 16:37:43 2023, MaxMem=  3221225472 cpu:               0.6 elap:               0.0
 (Enter /home/center/opt/aarch64/apps/gaussian16/c01/g16/l122.exe)
 Counterpoise: doing full-system calculation.
 Leave Link  122 at Wed Sep 27 16:37:46 2023, MaxMem=  3221225472 cpu:               0.5 elap:               0.0
 (Enter /home/center/opt/aarch64/apps/gaussian16/c01/g16/l301.exe)
 Standard basis: 6-311G(d,p) (5D, 7F)
 Ernie: Thresh=  0.10000D-02 Tol=  0.10000D-05 Strict=F.
 There are   528 symmetry adapted cartesian basis functions of A'  symmetry.
 There are   476 symmetry adapted cartesian basis functions of A"  symmetry.
 There are   504 symmetry adapted basis functions of A'  symmetry.
 There are   456 symmetry adapted basis functions of A"  symmetry.
   960 basis functions,  1632 primitive gaussians,  1004 cartesian basis functions
   146 alpha electrons      146 beta electrons
       nuclear repulsion energy      4684.0435772744 Hartrees.
 IExCor=  402 DFT=T Ex+Corr=B3LYP ExCW=0 ScaHFX=  0.200000
 ScaDFX=  0.800000  0.720000  1.000000  0.810000 ScalE2=  1.000000  1.000000
 IRadAn=      5 IRanWt=     -1 IRanGd=            0 ICorTp=0 IEmpDi=131
 NAtoms=   72 NActive=   72 NUniq=   40 SFac= 3.24D+00 NAtFMM=   60 NAOKFM=T Big=F
 Integral buffers will be    131072 words long.
 Raffenetti 2 integral format.
 Two-electron integral symmetry is turned on.
 R6Disp:  Grimme-D3 Dispersion energy=       -0.0859906761 Hartrees.
 Nuclear repulsion after empirical dispersion term =     4683.9575865983 Hartrees.
 Leave Link  301 at Wed Sep 27 16:37:48 2023, MaxMem=  3221225472 cpu:               0.5 elap:               0.1
 (Enter /home/center/opt/aarch64/apps/gaussian16/c01/g16/l302.exe)
 NPDir=0 NMtPBC=     1 NCelOv=     1 NCel=       1 NClECP=     1 NCelD=      1
         NCelK=      1 NCelE2=     1 NClLst=     1 CellRange=     0.0.
 One-electron integrals computed using PRISM.
 One-electron integral symmetry used in STVInt
 NBasis=   960 RedAO= T EigKep=  3.71D-05  NBF=   504   456
 NBsUse=   960 1.00D-06 EigRej= -1.00D+00 NBFU=   504   456
 Precomputing XC quadrature grid using
 IXCGrd= 4 IRadAn=           5 IRanWt=          -1 IRanGd=           0 AccXCQ= 0.00D+00.
 Generated NRdTot=       0 NPtTot=           0 NUsed=           0 NTot=          32
 NSgBfM=   991   991   991   991   991 MxSgAt=    72 MxSgA2=    72.
 Leave Link  302 at Wed Sep 27 16:37:52 2023, MaxMem=  3221225472 cpu:              64.5 elap:               1.9
 (Enter /home/center/opt/aarch64/apps/gaussian16/c01/g16/l303.exe)
 DipDrv:  MaxL=1.
 Leave Link  303 at Wed Sep 27 16:37:55 2023, MaxMem=  3221225472 cpu:              14.1 elap:               0.4
 (Enter /home/center/opt/aarch64/apps/gaussian16/c01/g16/l401.exe)
 ExpMin= 1.03D-01 ExpMax= 4.56D+03 ExpMxC= 6.82D+02 IAcc=3 IRadAn=         5 AccDes= 0.00D+00
 Harris functional with IExCor=  402 and IRadAn=       5 diagonalized for initial guess.
 HarFok:  IExCor=  402 AccDes= 0.00D+00 IRadAn=         5 IDoV= 1 UseB2=F ITyADJ=14
 ICtDFT=  3500011 ScaDFX=  1.000000  1.000000  1.000000  1.000000
 FoFCou: FMM=F IPFlag=           0 FMFlag=      100000 FMFlg1=        2000
         NFxFlg=           0 DoJE=T BraDBF=F KetDBF=T FulRan=T
         wScrn=  0.000000 ICntrl=       500 IOpCl=  0 I1Cent=   200000004 NGrid=           0
         NMat0=    1 NMatS0=      1 NMatT0=    0 NMatD0=    1 NMtDS0=    0 NMtDT0=    0
 Petite list used in FoFCou.
 Harris En= -1694.13566726158    
 JPrj=0 DoOrth=F DoCkMO=F.
 Initial guess orbital symmetries:
       Occupied  (A") (A') (A") (A') (A") (A') (A') (A") (A") (A')
                 (A") (A') (A") (A') (A") (A') (A") (A') (A') (A")
                 (A') (A") (A') (A") (A') (A') (A') (A') (A") (A')
                 (A") (A') (A") (A') (A") (A") (A') (A') (A") (A')
                 (A") (A') (A') (A") (A') (A') (A") (A") (A') (A')
                 (A") (A") (A') (A') (A') (A') (A") (A") (A') (A')
                 (A") (A") (A") (A") (A') (A') (A') (A') (A") (A")
                 (A") (A") (A') (A') (A") (A") (A') (A') (A') (A')
                 (A') (A') (A") (A") (A") (A") (A") (A') (A") (A')
                 (A') (A') (A") (A") (A') (A') (A') (A') (A") (A")
                 (A') (A') (A") (A") (A") (A") (A') (A') (A') (A')
                 (A") (A") (A') (A') (A") (A") (A') (A') (A") (A")
                 (A") (A") (A') (A') (A') (A') (A") (A") (A') (A')
                 (A") (A") (A') (A') (A") (A") (A') (A') (A') (A')
                 (A") (A") (A") (A") (A') (A')
       Virtual   (A') (A') (A") (A") (A") (A") (A') (A') (A') (A')
                 (A") (A") (A') (A') (A") (A") (A') (A") (A') (A')
                 (A') (A') (A") (A') (A") (A') (A") (A") (A') (A')
                 (A") (A") (A') (A") (A') (A") (A') (A") (A') (A")
                 (A') (A') (A") (A") (A') (A') (A") (A') (A') (A')
                 (A') (A") (A') (A") (A') (A') (A") (A") (A') (A')
                 (A") (A") (A") (A") (A') (A') (A") (A") (A') (A")
                 (A') (A") (A') (A') (A") (A') (A") (A") (A') (A")
                 (A') (A') (A") (A') (A") (A') (A') (A') (A") (A')
                 (A') (A") (A") (A") (A') (A") (A') (A") (A') (A')
                 (A") (A') (A") (A") (A') (A') (A") (A') (A") (A')
                 (A') (A") (A') (A') (A") (A') (A") (A') (A") (A')
                 (A') (A") (A') (A") (A") (A') (A") (A') (A") (A')
                 (A") (A') (A") (A') (A") (A") (A') (A') (A') (A")
                 (A") (A') (A") (A") (A') (A') (A') (A') (A") (A')
                 (A') (A") (A') (A") (A") (A') (A") (A') (A") (A")
                 (A') (A') (A") (A') (A") (A') (A") (A') (A") (A')
                 (A') (A") (A') (A") (A") (A') (A') (A") (A') (A')
                 (A") (A") (A') (A') (A") (A') (A") (A') (A") (A')
                 (A') (A") (A') (A") (A") (A') (A') (A") (A') (A")
                 (A") (A') (A") (A') (A') (A') (A") (A') (A") (A")
                 (A') (A") (A') (A") (A') (A") (A') (A") (A") (A')
                 (A") (A') (A") (A') (A") (A') (A') (A") (A') (A")
                 (A') (A') (A') (A") (A') (A') (A") (A") (A') (A")
                 (A") (A') (A") (A') (A") (A') (A") (A') (A') (A")
                 (A") (A') (A") (A') (A') (A") (A') (A") (A') (A")
                 (A') (A") (A") (A') (A') (A") (A") (A") (A') (A')
                 (A") (A") (A') (A') (A") (A') (A") (A') (A") (A')
                 (A') (A') (A") (A") (A") (A') (A') (A") (A') (A')
                 (A") (A') (A") (A") (A') (A") (A") (A") (A') (A")
                 (A') (A') (A") (A') (A') (A') (A") (A") (A') (A')
                 (A") (A") (A") (A") (A') (A') (A') (A') (A") (A')
                 (A") (A') (A") (A') (A") (A') (A') (A") (A") (A")
                 (A') (A") (A') (A") (A') (A') (A") (A") (A') (A')
                 (A") (A') (A') (A") (A') (A") (A') (A") (A") (A')
                 (A') (A") (A') (A') (A") (A') (A') (A') (A") (A')
                 (A") (A') (A') (A") (A') (A") (A") (A") (A") (A")
                 (A') (A") (A') (A") (A") (A') (A") (A') (A') (A')
                 (A") (A') (A") (A') (A') (A') (A") (A') (A") (A")
                 (A') (A') (A') (A') (A") (A") (A') (A") (A") (A')
                 (A") (A') (A") (A') (A') (A") (A') (A") (A") (A')
                 (A") (A') (A') (A') (A") (A') (A") (A') (A") (A')
                 (A') (A') (A') (A") (A") (A') (A") (A') (A") (A')
                 (A") (A") (A") (A") (A') (A") (A') (A") (A') (A")
                 (A") (A') (A") (A') (A') (A') (A") (A") (A') (A")
                 (A') (A') (A') (A") (A") (A") (A') (A') (A') (A")
                 (A") (A') (A') (A") (A") (A') (A") (A') (A') (A")
                 (A") (A') (A") (A') (A") (A') (A") (A') (A') (A")
                 (A') (A") (A') (A") (A') (A') (A") (A") (A") (A")
                 (A') (A") (A') (A") (A") (A") (A") (A') (A') (A')
                 (A") (A') (A') (A") (A") (A') (A') (A') (A") (A")
                 (A') (A') (A') (A") (A") (A') (A") (A') (A") (A")
                 (A') (A') (A") (A') (A") (A') (A') (A") (A') (A")
                 (A") (A') (A") (A') (A") (A') (A') (A") (A") (A')
                 (A") (A") (A') (A') (A') (A") (A") (A") (A') (A")
                 (A') (A") (A') (A") (A') (A") (A') (A") (A') (A')
                 (A") (A") (A') (A') (A') (A') (A") (A") (A') (A")
                 (A") (A') (A") (A') (A") (A') (A') (A") (A") (A')
                 (A') (A') (A") (A') (A") (A') (A') (A") (A') (A")
                 (A') (A') (A") (A") (A') (A') (A') (A") (A") (A")
                 (A') (A') (A') (A") (A") (A') (A") (A') (A") (A')
                 (A") (A') (A") (A') (A') (A") (A') (A") (A') (A")
                 (A") (A') (A") (A') (A") (A') (A") (A') (A') (A")
                 (A') (A') (A') (A") (A') (A") (A") (A") (A') (A")
                 (A") (A') (A') (A") (A") (A') (A') (A") (A') (A')
                 (A') (A") (A') (A") (A') (A') (A") (A') (A") (A')
                 (A') (A") (A") (A") (A') (A") (A') (A') (A") (A')
                 (A") (A') (A") (A') (A") (A') (A") (A") (A') (A')
                 (A") (A') (A') (A") (A') (A") (A") (A') (A") (A")
                 (A') (A') (A") (A') (A") (A') (A') (A") (A") (A')
                 (A") (A') (A") (A') (A') (A") (A') (A") (A') (A")
                 (A") (A") (A') (A') (A") (A') (A') (A") (A') (A")
                 (A') (A") (A') (A') (A") (A") (A') (A') (A') (A')
                 (A") (A") (A') (A") (A") (A') (A') (A") (A') (A')
                 (A") (A") (A') (A") (A') (A') (A") (A') (A') (A')
                 (A") (A') (A") (A") (A') (A") (A') (A') (A") (A")
                 (A") (A') (A") (A') (A") (A") (A') (A") (A') (A")
                 (A') (A') (A") (A") (A') (A') (A') (A') (A") (A")
                 (A") (A") (A') (A') (A") (A') (A") (A') (A') (A')
                 (A") (A") (A") (A") (A') (A') (A') (A') (A") (A")
                 (A') (A') (A") (A") (A') (A') (A") (A') (A") (A')
                 (A') (A") (A') (A")
 The electronic state of the initial guess is 1-A'.
 Leave Link  401 at Wed Sep 27 16:38:00 2023, MaxMem=  3221225472 cpu:             107.2 elap:               2.7
 (Enter /home/center/opt/aarch64/apps/gaussian16/c01/g16/l502.exe)
 Integral symmetry usage will be decided dynamically.
 Closed shell SCF:
 Using DIIS extrapolation, IDIIS=  1040.
 NGot=  3221225472 LenX=  3219153746 LenY=  3218144726
 Requested convergence on RMS density matrix=1.00D-08 within 128 cycles.
 Requested convergence on MAX density matrix=1.00D-06.
 Requested convergence on             energy=1.00D-06.
 No special actions if energy rises.
 Fock matrices will be formed incrementally for  20 cycles.
 Integral accuracy reduced to 1.0D-05 until final iterations.

 Cycle   1  Pass 0  IDiag  1:
 FoFJK:  IHMeth= 1 ICntrl=       0 DoSepK=F KAlg= 0 I1Cent=           0 FoldK=F
 IRaf= 560000000 NMat=       1 IRICut=       1 DoRegI=T DoRafI=F ISym2E= 1 IDoP0=0 IntGTp=1.
 FoFCou: FMM=F IPFlag=           0 FMFlag=      100000 FMFlg1=        2000
         NFxFlg=           0 DoJE=F BraDBF=F KetDBF=F FulRan=T
         wScrn=  0.000000 ICntrl=         0 IOpCl=  0 I1Cent=           0 NGrid=           0
         NMat0=    1 NMatS0=      1 NMatT0=    0 NMatD0=    1 NMtDS0=    0 NMtDT0=    0
 Petite list used in FoFCou.
 E= -1693.17688563075    
 DIIS: error= 4.39D-02 at cycle   1 NSaved=   1.
 NSaved= 1 IEnMin= 1 EnMin= -1693.17688563075     IErMin= 1 ErrMin= 4.39D-02
 ErrMax= 4.39D-02  0.00D+00 EMaxC= 1.00D-01 BMatC= 8.96D-01 BMatP= 8.96D-01
 IDIUse=3 WtCom= 5.61D-01 WtEn= 4.39D-01
 Coeff-Com:  0.100D+01
 Coeff-En:   0.100D+01
 Coeff:      0.100D+01
 Gap=     0.058 Goal=   None    Shift=    0.000
 GapD=    0.058 DampG=0.500 DampE=0.500 DampFc=0.2500 IDamp=-1.
 Damping current iteration by 2.50D-01
 RMSDP=1.72D-03 MaxDP=8.40D-02              OVMax= 1.54D-01

 Cycle   2  Pass 0  IDiag  1:
 RMSU=  4.16D-04    CP:  9.82D-01
 E= -1693.48364317832     Delta-E=       -0.306757547572 Rises=F Damp=T
 DIIS: error= 2.57D-02 at cycle   2 NSaved=   2.
 NSaved= 2 IEnMin= 2 EnMin= -1693.48364317832     IErMin= 2 ErrMin= 2.57D-02
 ErrMax= 2.57D-02  0.00D+00 EMaxC= 1.00D-01 BMatC= 2.99D-01 BMatP= 8.96D-01
 IDIUse=3 WtCom= 7.43D-01 WtEn= 2.57D-01
 Coeff-Com: -0.122D+01 0.222D+01
 Coeff-En:   0.000D+00 0.100D+01
 Coeff:     -0.905D+00 0.190D+01
 Gap=     0.059 Goal=   None    Shift=    0.000
 RMSDP=7.19D-04 MaxDP=3.38D-02 DE=-3.07D-01 OVMax= 1.12D-01

 Cycle   3  Pass 0  IDiag  1:
 RMSU=  4.61D-04    CP:  9.57D-01  2.27D+00
 E= -1694.04500035351     Delta-E=       -0.561357175187 Rises=F Damp=F
 DIIS: error= 5.48D-03 at cycle   3 NSaved=   3.
 NSaved= 3 IEnMin= 3 EnMin= -1694.04500035351     IErMin= 3 ErrMin= 5.48D-03
 ErrMax= 5.48D-03  0.00D+00 EMaxC= 1.00D-01 BMatC= 1.23D-02 BMatP= 2.99D-01
 IDIUse=3 WtCom= 9.45D-01 WtEn= 5.48D-02
 Coeff-Com: -0.272D+00 0.549D+00 0.723D+00
 Coeff-En:   0.000D+00 0.000D+00 0.100D+01
 Coeff:     -0.257D+00 0.519D+00 0.738D+00
 Gap=     0.065 Goal=   None    Shift=    0.000
 RMSDP=2.58D-04 MaxDP=1.61D-02 DE=-5.61D-01 OVMax= 1.28D-01

 Cycle   4  Pass 0  IDiag  1:
 RMSU=  2.19D-04    CP:  9.58D-01  2.18D+00  7.20D-01
 E= -1694.03843557006     Delta-E=        0.006564783453 Rises=F Damp=F
 DIIS: error= 9.35D-03 at cycle   4 NSaved=   4.
 NSaved= 4 IEnMin= 3 EnMin= -1694.04500035351     IErMin= 3 ErrMin= 5.48D-03
 ErrMax= 9.35D-03  0.00D+00 EMaxC= 1.00D-01 BMatC= 1.62D-02 BMatP= 1.23D-02
 IDIUse=3 WtCom= 9.37D-02 WtEn= 9.06D-01
 Coeff-Com: -0.498D-01 0.126D+00 0.533D+00 0.391D+00
 Coeff-En:   0.000D+00 0.000D+00 0.581D+00 0.419D+00
 Coeff:     -0.467D-02 0.118D-01 0.577D+00 0.416D+00
 Gap=     0.061 Goal=   None    Shift=    0.000
 RMSDP=1.53D-04 MaxDP=1.11D-02 DE= 6.56D-03 OVMax= 1.01D-01

 Cycle   5  Pass 0  IDiag  1:
 RMSU=  7.72D-05    CP:  9.58D-01  2.17D+00  7.98D-01  4.19D-01
 E= -1694.05713158237     Delta-E=       -0.018696012315 Rises=F Damp=F
 DIIS: error= 2.46D-03 at cycle   5 NSaved=   5.
 NSaved= 5 IEnMin= 5 EnMin= -1694.05713158237     IErMin= 5 ErrMin= 2.46D-03
 ErrMax= 2.46D-03  0.00D+00 EMaxC= 1.00D-01 BMatC= 9.93D-04 BMatP= 1.23D-02
 IDIUse=3 WtCom= 9.75D-01 WtEn= 2.46D-02
 Coeff-Com: -0.156D-01 0.345D-01 0.259D+00 0.227D+00 0.495D+00
 Coeff-En:   0.000D+00 0.000D+00 0.000D+00 0.000D+00 0.100D+01
 Coeff:     -0.152D-01 0.336D-01 0.252D+00 0.221D+00 0.508D+00
 Gap=     0.062 Goal=   None    Shift=    0.000
 RMSDP=4.66D-05 MaxDP=3.51D-03 DE=-1.87D-02 OVMax= 3.11D-02

 Cycle   6  Pass 0  IDiag  1:
 RMSU=  2.73D-05    CP:  9.57D-01  2.19D+00  8.11D-01  4.87D-01  5.69D-01
 E= -1694.05787954079     Delta-E=       -0.000747958421 Rises=F Damp=F
 DIIS: error= 1.41D-03 at cycle   6 NSaved=   6.
 NSaved= 6 IEnMin= 6 EnMin= -1694.05787954079     IErMin= 6 ErrMin= 1.41D-03
 ErrMax= 1.41D-03  0.00D+00 EMaxC= 1.00D-01 BMatC= 2.90D-04 BMatP= 9.93D-04
 IDIUse=3 WtCom= 9.86D-01 WtEn= 1.41D-02
 Coeff-Com: -0.410D-02 0.663D-02 0.110D+00 0.106D+00 0.373D+00 0.408D+00
 Coeff-En:   0.000D+00 0.000D+00 0.000D+00 0.000D+00 0.265D+00 0.735D+00
 Coeff:     -0.404D-02 0.653D-02 0.109D+00 0.104D+00 0.372D+00 0.413D+00
 Gap=     0.061 Goal=   None    Shift=    0.000
 RMSDP=2.22D-05 MaxDP=1.68D-03 DE=-7.48D-04 OVMax= 1.33D-02

 Cycle   7  Pass 0  IDiag  1:
 RMSU=  9.57D-06    CP:  9.57D-01  2.19D+00  8.13D-01  4.67D-01  6.32D-01
                    CP:  3.10D-01
 E= -1694.05820937726     Delta-E=       -0.000329836471 Rises=F Damp=F
 DIIS: error= 3.39D-04 at cycle   7 NSaved=   7.
 NSaved= 7 IEnMin= 7 EnMin= -1694.05820937726     IErMin= 7 ErrMin= 3.39D-04
 ErrMax= 3.39D-04  0.00D+00 EMaxC= 1.00D-01 BMatC= 2.34D-05 BMatP= 2.90D-04
 IDIUse=3 WtCom= 9.97D-01 WtEn= 3.39D-03
 Coeff-Com: -0.837D-03 0.778D-03 0.575D-01 0.552D-01 0.217D+00 0.286D+00
 Coeff-Com:  0.384D+00
 Coeff-En:   0.000D+00 0.000D+00 0.000D+00 0.000D+00 0.000D+00 0.395D-01
 Coeff-En:   0.960D+00
 Coeff:     -0.834D-03 0.775D-03 0.573D-01 0.551D-01 0.216D+00 0.285D+00
 Coeff:      0.386D+00
 Gap=     0.061 Goal=   None    Shift=    0.000
 RMSDP=6.13D-06 MaxDP=3.11D-04 DE=-3.30D-04 OVMax= 2.38D-03

 Initial convergence to 1.0D-05 achieved.  Increase integral accuracy.
 Cycle   8  Pass 1  IDiag  1:
 E= -1694.05788992524     Delta-E=        0.000319452021 Rises=F Damp=F
 DIIS: error= 6.65D-04 at cycle   1 NSaved=   1.
 NSaved= 1 IEnMin= 1 EnMin= -1694.05788992524     IErMin= 1 ErrMin= 6.65D-04
 ErrMax= 6.65D-04  0.00D+00 EMaxC= 1.00D-01 BMatC= 4.62D-05 BMatP= 4.62D-05
 IDIUse=3 WtCom= 9.93D-01 WtEn= 6.65D-03
 Coeff-Com:  0.100D+01
 Coeff-En:   0.100D+01
 Coeff:      0.100D+01
 Gap=     0.061 Goal=   None    Shift=    0.000
 RMSDP=6.13D-06 MaxDP=3.11D-04 DE= 3.19D-04 OVMax= 2.66D-03

 Cycle   9  Pass 1  IDiag  1:
 RMSU=  3.25D-04    CP:  9.98D-01
 E= -1694.05792739209     Delta-E=       -0.000037466848 Rises=F Damp=F
 DIIS: error= 2.10D-04 at cycle   2 NSaved=   2.
 NSaved= 2 IEnMin= 2 EnMin= -1694.05792739209     IErMin= 2 ErrMin= 2.10D-04
 ErrMax= 2.10D-04  0.00D+00 EMaxC= 1.00D-01 BMatC= 6.16D-06 BMatP= 4.62D-05
 IDIUse=3 WtCom= 9.98D-01 WtEn= 2.10D-03
 Coeff-Com:  0.145D+00 0.855D+00
 Coeff-En:   0.000D+00 0.100D+01
 Coeff:      0.145D+00 0.855D+00
 Gap=     0.061 Goal=   None    Shift=    0.000
 RMSDP=9.50D-06 MaxDP=6.67D-04 DE=-3.75D-05 OVMax= 5.80D-03

 Cycle  10  Pass 1  IDiag  1:
 RMSU=  9.12D-06    CP:  9.98D-01  1.01D+00
 E= -1694.05789548144     Delta-E=        0.000031910653 Rises=F Damp=F
 DIIS: error= 5.03D-04 at cycle   3 NSaved=   3.
 NSaved= 3 IEnMin= 2 EnMin= -1694.05792739209     IErMin= 2 ErrMin= 2.10D-04
 ErrMax= 5.03D-04  0.00D+00 EMaxC= 1.00D-01 BMatC= 3.14D-05 BMatP= 6.16D-06
 IDIUse=3 WtCom= 3.08D-01 WtEn= 6.92D-01
 Coeff-Com: -0.777D-03 0.695D+00 0.306D+00
 Coeff-En:   0.000D+00 0.767D+00 0.233D+00
 Coeff:     -0.240D-03 0.745D+00 0.256D+00
 Gap=     0.061 Goal=   None    Shift=    0.000
 RMSDP=5.46D-06 MaxDP=3.64D-04 DE= 3.19D-05 OVMax= 3.41D-03

 Cycle  11  Pass 1  IDiag  1:
 RMSU=  1.09D-06    CP:  9.98D-01  1.01D+00  4.23D-01
 E= -1694.05793345239     Delta-E=       -0.000037970952 Rises=F Damp=F
 DIIS: error= 8.14D-05 at cycle   4 NSaved=   4.
 NSaved= 4 IEnMin= 4 EnMin= -1694.05793345239     IErMin= 4 ErrMin= 8.14D-05
 ErrMax= 8.14D-05  0.00D+00 EMaxC= 1.00D-01 BMatC= 1.24D-06 BMatP= 6.16D-06
 IDIUse=1 WtCom= 1.00D+00 WtEn= 0.00D+00
 Coeff-Com: -0.386D-02 0.449D+00 0.119D+00 0.436D+00
 Coeff:     -0.386D-02 0.449D+00 0.119D+00 0.436D+00
 Gap=     0.061 Goal=   None    Shift=    0.000
 RMSDP=1.18D-06 MaxDP=9.52D-05 DE=-3.80D-05 OVMax= 7.01D-04

 Cycle  12  Pass 1  IDiag  1:
 RMSU=  3.83D-07    CP:  9.98D-01  1.01D+00  3.04D-01  7.66D-01
 E= -1694.05793486595     Delta-E=       -0.000001413564 Rises=F Damp=F
 DIIS: error= 4.61D-06 at cycle   5 NSaved=   5.
 NSaved= 5 IEnMin= 5 EnMin= -1694.05793486595     IErMin= 5 ErrMin= 4.61D-06
 ErrMax= 4.61D-06  0.00D+00 EMaxC= 1.00D-01 BMatC= 5.49D-09 BMatP= 1.24D-06
 IDIUse=1 WtCom= 1.00D+00 WtEn= 0.00D+00
 Coeff-Com: -0.235D-02 0.262D+00 0.675D-01 0.266D+00 0.407D+00
 Coeff:     -0.235D-02 0.262D+00 0.675D-01 0.266D+00 0.407D+00
 Gap=     0.061 Goal=   None    Shift=    0.000
 RMSDP=1.05D-07 MaxDP=6.48D-06 DE=-1.41D-06 OVMax= 6.09D-05

 Cycle  13  Pass 1  IDiag  1:
 RMSU=  9.48D-08    CP:  9.98D-01  1.01D+00  3.05D-01  7.78D-01  8.91D-01
 E= -1694.05793487162     Delta-E=       -0.000000005666 Rises=F Damp=F
 DIIS: error= 2.43D-06 at cycle   6 NSaved=   6.
 NSaved= 6 IEnMin= 6 EnMin= -1694.05793487162     IErMin= 6 ErrMin= 2.43D-06
 ErrMax= 2.43D-06  0.00D+00 EMaxC= 1.00D-01 BMatC= 8.40D-10 BMatP= 5.49D-09
 IDIUse=1 WtCom= 1.00D+00 WtEn= 0.00D+00
 Coeff-Com: -0.948D-03 0.103D+00 0.259D-01 0.108D+00 0.280D+00 0.484D+00
 Coeff:     -0.948D-03 0.103D+00 0.259D-01 0.108D+00 0.280D+00 0.484D+00
 Gap=     0.061 Goal=   None    Shift=    0.000
 RMSDP=4.33D-08 MaxDP=3.10D-06 DE=-5.67D-09 OVMax= 2.77D-05

 Cycle  14  Pass 1  IDiag  1:
 RMSU=  3.18D-08    CP:  9.98D-01  1.01D+00  3.05D-01  7.73D-01  9.22D-01
                    CP:  7.29D-01
 E= -1694.05793487252     Delta-E=       -0.000000000901 Rises=F Damp=F
 DIIS: error= 7.50D-07 at cycle   7 NSaved=   7.
 NSaved= 7 IEnMin= 7 EnMin= -1694.05793487252     IErMin= 7 ErrMin= 7.50D-07
 ErrMax= 7.50D-07  0.00D+00 EMaxC= 1.00D-01 BMatC= 1.02D-10 BMatP= 8.40D-10
 IDIUse=1 WtCom= 1.00D+00 WtEn= 0.00D+00
 Coeff-Com: -0.413D-03 0.440D-01 0.108D-01 0.478D-01 0.142D+00 0.322D+00
 Coeff-Com:  0.434D+00
 Coeff:     -0.413D-03 0.440D-01 0.108D-01 0.478D-01 0.142D+00 0.322D+00
 Coeff:      0.434D+00
 Gap=     0.061 Goal=   None    Shift=    0.000
 RMSDP=1.44D-08 MaxDP=6.24D-07 DE=-9.01D-10 OVMax= 6.17D-06

 Cycle  15  Pass 1  IDiag  1:
 RMSU=  8.52D-09    CP:  9.98D-01  1.01D+00  3.05D-01  7.75D-01  9.23D-01
                    CP:  7.65D-01  6.64D-01
 E= -1694.05793487264     Delta-E=       -0.000000000120 Rises=F Damp=F
 DIIS: error= 2.29D-07 at cycle   8 NSaved=   8.
 NSaved= 8 IEnMin= 8 EnMin= -1694.05793487264     IErMin= 8 ErrMin= 2.29D-07
 ErrMax= 2.29D-07  0.00D+00 EMaxC= 1.00D-01 BMatC= 1.41D-11 BMatP= 1.02D-10
 IDIUse=1 WtCom= 1.00D+00 WtEn= 0.00D+00
 Coeff-Com:  0.105D-04-0.164D-02-0.892D-03 0.137D-03 0.125D-01 0.920D-01
 Coeff-Com:  0.277D+00 0.621D+00
 Coeff:      0.105D-04-0.164D-02-0.892D-03 0.137D-03 0.125D-01 0.920D-01
 Coeff:      0.277D+00 0.621D+00
 Gap=     0.061 Goal=   None    Shift=    0.000
 RMSDP=5.30D-09 MaxDP=2.19D-07 DE=-1.20D-10 OVMax= 1.97D-06

 SCF Done:  E(RB3LYP) =  -1694.05793487     A.U. after   15 cycles
            NFock= 15  Conv=0.53D-08     -V/T= 2.0043
 KE= 1.686748306066D+03 PE=-1.329852573428D+04 EE= 5.233761906746D+03
 Leave Link  502 at Wed Sep 27 16:39:51 2023, MaxMem=  3221225472 cpu:            3920.4 elap:             108.9
 (Enter /home/center/opt/aarch64/apps/gaussian16/c01/g16/l601.exe)
 Copying SCF densities to generalized density rwf, IOpCl= 0 IROHF=0.

 **********************************************************************

            Population analysis using the SCF Density.

 **********************************************************************

 Orbital symmetries:
       Occupied  (A") (A') (A') (A") (A") (A') (A") (A') (A') (A")
                 (A') (A') (A") (A') (A") (A') (A") (A') (A") (A')
                 (A") (A') (A") (A') (A") (A') (A') (A") (A') (A")
                 (A") (A') (A") (A') (A') (A") (A') (A") (A') (A')
                 (A") (A') (A") (A') (A') (A") (A') (A") (A') (A')
                 (A") (A") (A') (A') (A") (A') (A') (A") (A') (A")
                 (A') (A") (A") (A") (A') (A') (A') (A') (A") (A")
                 (A') (A") (A") (A") (A') (A') (A") (A') (A') (A')
                 (A') (A") (A") (A') (A") (A") (A') (A") (A') (A')
                 (A") (A') (A") (A") (A') (A') (A") (A') (A") (A')
                 (A") (A') (A') (A') (A') (A') (A") (A") (A") (A')
                 (A') (A') (A") (A") (A") (A") (A") (A') (A") (A')
                 (A') (A') (A') (A") (A") (A') (A') (A") (A') (A")
                 (A") (A") (A') (A') (A") (A') (A") (A') (A') (A')
                 (A") (A") (A") (A") (A') (A')
       Virtual   (A') (A') (A") (A") (A") (A") (A') (A') (A') (A")
                 (A') (A') (A") (A') (A") (A') (A') (A') (A") (A")
                 (A') (A') (A") (A") (A') (A") (A') (A") (A") (A')
                 (A") (A') (A") (A') (A') (A") (A') (A") (A") (A')
                 (A') (A') (A') (A") (A") (A') (A") (A') (A") (A")
                 (A') (A') (A') (A') (A') (A") (A') (A') (A") (A')
                 (A") (A") (A") (A") (A') (A') (A") (A") (A') (A")
                 (A') (A') (A") (A') (A') (A") (A") (A') (A") (A')
                 (A") (A') (A') (A") (A') (A') (A') (A") (A') (A")
                 (A") (A') (A") (A') (A') (A') (A") (A") (A') (A")
                 (A') (A") (A') (A") (A') (A") (A') (A") (A") (A")
                 (A') (A') (A") (A') (A') (A") (A') (A') (A") (A')
                 (A") (A") (A') (A') (A') (A') (A') (A") (A") (A")
                 (A') (A') (A") (A') (A') (A") (A') (A") (A") (A')
                 (A') (A') (A') (A") (A") (A") (A") (A') (A") (A')
                 (A") (A") (A') (A") (A') (A") (A') (A') (A') (A')
                 (A") (A") (A') (A') (A") (A") (A') (A") (A") (A')
                 (A') (A') (A') (A") (A") (A') (A") (A") (A") (A')
                 (A') (A') (A") (A") (A') (A") (A') (A") (A") (A')
                 (A') (A") (A') (A') (A') (A") (A") (A") (A') (A")
                 (A') (A') (A') (A") (A') (A") (A') (A') (A") (A')
                 (A") (A') (A") (A") (A') (A') (A") (A') (A") (A')
                 (A") (A") (A') (A") (A') (A") (A') (A") (A') (A")
                 (A') (A') (A') (A") (A') (A") (A') (A") (A') (A")
                 (A') (A") (A') (A") (A') (A") (A") (A') (A') (A")
                 (A") (A') (A') (A") (A") (A') (A") (A') (A") (A')
                 (A') (A") (A') (A") (A') (A') (A") (A") (A') (A")
                 (A') (A") (A") (A') (A') (A") (A') (A") (A") (A')
                 (A') (A") (A') (A") (A') (A") (A") (A') (A') (A")
                 (A') (A") (A') (A") (A') (A") (A') (A') (A") (A")
                 (A') (A") (A") (A') (A") (A') (A') (A") (A') (A')
                 (A") (A') (A") (A') (A") (A") (A") (A') (A') (A")
                 (A') (A') (A") (A') (A") (A') (A") (A') (A") (A")
                 (A') (A") (A') (A") (A') (A') (A") (A") (A') (A')
                 (A") (A') (A') (A') (A") (A") (A') (A') (A") (A')
                 (A") (A") (A') (A") (A') (A') (A') (A') (A") (A')
                 (A') (A") (A") (A') (A") (A') (A") (A") (A") (A')
                 (A") (A') (A") (A") (A") (A') (A') (A") (A') (A')
                 (A") (A') (A") (A') (A') (A") (A') (A') (A") (A')
                 (A') (A") (A') (A") (A') (A") (A") (A') (A') (A")
                 (A') (A") (A") (A') (A") (A') (A') (A") (A') (A")
                 (A') (A') (A") (A") (A') (A') (A") (A') (A') (A")
                 (A') (A") (A') (A') (A") (A') (A") (A') (A") (A")
                 (A') (A') (A") (A") (A") (A") (A') (A') (A") (A')
                 (A") (A") (A') (A") (A') (A") (A') (A') (A") (A')
                 (A") (A') (A") (A') (A") (A") (A') (A") (A') (A')
                 (A") (A') (A") (A') (A") (A') (A") (A') (A') (A")
                 (A") (A') (A") (A') (A") (A") (A') (A') (A') (A")
                 (A') (A") (A') (A") (A') (A') (A") (A") (A") (A")
                 (A") (A') (A") (A') (A") (A") (A") (A') (A') (A')
                 (A") (A") (A') (A') (A') (A") (A') (A') (A") (A')
                 (A") (A") (A') (A') (A") (A') (A') (A") (A") (A")
                 (A') (A") (A') (A') (A") (A') (A') (A") (A") (A")
                 (A') (A") (A') (A") (A') (A") (A") (A') (A') (A')
                 (A") (A') (A") (A') (A") (A') (A") (A") (A") (A')
                 (A') (A") (A") (A') (A') (A') (A") (A") (A') (A")
                 (A') (A') (A') (A") (A") (A') (A") (A') (A') (A")
                 (A') (A") (A') (A") (A') (A') (A') (A') (A") (A")
                 (A") (A") (A') (A') (A") (A") (A') (A") (A') (A")
                 (A') (A") (A') (A") (A") (A') (A') (A') (A') (A')
                 (A") (A') (A") (A") (A') (A') (A") (A') (A') (A")
                 (A") (A') (A') (A') (A") (A') (A") (A") (A') (A')
                 (A') (A") (A") (A") (A') (A') (A") (A") (A") (A')
                 (A") (A') (A') (A") (A') (A') (A') (A") (A") (A')
                 (A") (A") (A') (A") (A') (A') (A') (A") (A") (A')
                 (A') (A") (A') (A") (A') (A") (A') (A') (A") (A')
                 (A") (A') (A") (A') (A") (A") (A') (A') (A") (A')
                 (A") (A') (A") (A') (A") (A') (A") (A") (A') (A')
                 (A') (A') (A") (A") (A') (A") (A") (A') (A") (A")
                 (A') (A') (A") (A') (A') (A') (A") (A") (A") (A')
                 (A') (A") (A') (A") (A') (A") (A') (A") (A') (A")
                 (A") (A") (A') (A') (A") (A') (A') (A") (A') (A")
                 (A') (A") (A') (A') (A") (A') (A") (A') (A') (A")
                 (A') (A") (A') (A") (A") (A') (A') (A") (A") (A')
                 (A') (A") (A') (A") (A') (A') (A") (A') (A') (A')
                 (A") (A') (A") (A") (A') (A") (A') (A') (A") (A")
                 (A") (A') (A") (A") (A') (A') (A") (A") (A') (A")
                 (A') (A') (A") (A") (A') (A') (A') (A') (A") (A")
                 (A") (A") (A') (A') (A") (A') (A') (A") (A') (A')
                 (A") (A") (A") (A") (A') (A') (A") (A') (A') (A")
                 (A') (A") (A') (A') (A") (A') (A") (A') (A") (A')
                 (A') (A") (A') (A")
 The electronic state is 1-A'.
 Alpha  occ. eigenvalues --  -10.19792 -10.19792 -10.19744 -10.19743 -10.19689
 Alpha  occ. eigenvalues --  -10.19689 -10.19617 -10.19617 -10.18848 -10.18773
 Alpha  occ. eigenvalues --  -10.18773 -10.18766 -10.18724 -10.18723 -10.18654
 Alpha  occ. eigenvalues --  -10.18654 -10.18588 -10.18588 -10.18573 -10.18573
 Alpha  occ. eigenvalues --  -10.18483 -10.18483 -10.17845 -10.17845 -10.17808
 Alpha  occ. eigenvalues --  -10.17808 -10.17732 -10.17732 -10.17656 -10.17656
 Alpha  occ. eigenvalues --  -10.16970 -10.16970 -10.16890 -10.16890 -10.16854
 Alpha  occ. eigenvalues --  -10.16853 -10.16850 -10.16774 -10.16774 -10.16628
 Alpha  occ. eigenvalues --  -10.16591 -10.16591 -10.16525 -10.16525  -0.90233
 Alpha  occ. eigenvalues --   -0.88726  -0.88242  -0.86798  -0.86395  -0.84497
 Alpha  occ. eigenvalues --   -0.83250  -0.81372  -0.80679  -0.79348  -0.79143
 Alpha  occ. eigenvalues --   -0.78698  -0.77483  -0.77221  -0.76807  -0.75076
 Alpha  occ. eigenvalues --   -0.74912  -0.73712  -0.73209  -0.71829  -0.70018
 Alpha  occ. eigenvalues --   -0.68207  -0.68070  -0.66291  -0.63535  -0.63157
 Alpha  occ. eigenvalues --   -0.61895  -0.61666  -0.61336  -0.60732  -0.60069
 Alpha  occ. eigenvalues --   -0.60006  -0.58877  -0.58471  -0.58231  -0.56645
 Alpha  occ. eigenvalues --   -0.53493  -0.53334  -0.53061  -0.51681  -0.51515
 Alpha  occ. eigenvalues --   -0.51261  -0.50396  -0.49288  -0.48598  -0.47900
 Alpha  occ. eigenvalues --   -0.47507  -0.46851  -0.46301  -0.46265  -0.46163
 Alpha  occ. eigenvalues --   -0.45526  -0.44838  -0.44702  -0.44425  -0.43913
 Alpha  occ. eigenvalues --   -0.43295  -0.42917  -0.42562  -0.42338  -0.42313
 Alpha  occ. eigenvalues --   -0.41821  -0.41619  -0.41508  -0.41166  -0.40750
 Alpha  occ. eigenvalues --   -0.40530  -0.40329  -0.40271  -0.39601  -0.39345
 Alpha  occ. eigenvalues --   -0.38934  -0.38553  -0.37563  -0.37259  -0.37084
 Alpha  occ. eigenvalues --   -0.36284  -0.35725  -0.35346  -0.34891  -0.34535
 Alpha  occ. eigenvalues --   -0.34274  -0.33811  -0.33519  -0.33107  -0.33026
 Alpha  occ. eigenvalues --   -0.32843  -0.31933  -0.31050  -0.30511  -0.30147
 Alpha  occ. eigenvalues --   -0.29195  -0.28599  -0.27422  -0.27364  -0.25570
 Alpha  occ. eigenvalues --   -0.25286  -0.23405  -0.23357  -0.21530  -0.18742
 Alpha  occ. eigenvalues --   -0.16777
 Alpha virt. eigenvalues --   -0.10648  -0.08702  -0.05354  -0.03685  -0.03437
 Alpha virt. eigenvalues --   -0.01742  -0.01084   0.00892   0.01176   0.01284
 Alpha virt. eigenvalues --    0.01877   0.03057   0.03414   0.03857   0.03974
 Alpha virt. eigenvalues --    0.04007   0.04851   0.05627   0.05742   0.06052
 Alpha virt. eigenvalues --    0.06153   0.06850   0.07244   0.07453   0.07770
 Alpha virt. eigenvalues --    0.08302   0.08761   0.09299   0.09533   0.09866
 Alpha virt. eigenvalues --    0.10594   0.11002   0.11389   0.11838   0.12298
 Alpha virt. eigenvalues --    0.13171   0.13172   0.13260   0.13504   0.14124
 Alpha virt. eigenvalues --    0.14860   0.15261   0.16285   0.16842   0.17185
 Alpha virt. eigenvalues --    0.17716   0.18150   0.18165   0.19159   0.19929
 Alpha virt. eigenvalues --    0.20413   0.20601   0.22154   0.22211   0.23676
 Alpha virt. eigenvalues --    0.24047   0.24049   0.24406   0.24880   0.25478
 Alpha virt. eigenvalues --    0.25562   0.26344   0.26748   0.26906   0.27277
 Alpha virt. eigenvalues --    0.27488   0.27790   0.28545   0.28610   0.28855
 Alpha virt. eigenvalues --    0.29093   0.29435   0.29618   0.30073   0.30158
 Alpha virt. eigenvalues --    0.30221   0.30500   0.31274   0.31764   0.32256
 Alpha virt. eigenvalues --    0.32352   0.33782   0.33967   0.34454   0.34474
 Alpha virt. eigenvalues --    0.34744   0.35350   0.35421   0.35737   0.36055
 Alpha virt. eigenvalues --    0.36277   0.37066   0.37319   0.37418   0.37739
 Alpha virt. eigenvalues --    0.38138   0.38216   0.38360   0.38838   0.38917
 Alpha virt. eigenvalues --    0.39134   0.39432   0.39694   0.39826   0.40114
 Alpha virt. eigenvalues --    0.40139   0.40396   0.40506   0.41252   0.41422
 Alpha virt. eigenvalues --    0.41709   0.42220   0.42241   0.42310   0.42547
 Alpha virt. eigenvalues --    0.42703   0.43104   0.43165   0.43179   0.43390
 Alpha virt. eigenvalues --    0.43497   0.44328   0.44577   0.44989   0.45112
 Alpha virt. eigenvalues --    0.45196   0.45524   0.45642   0.45772   0.45918
 Alpha virt. eigenvalues --    0.45945   0.46203   0.46430   0.46536   0.46835
 Alpha virt. eigenvalues --    0.46887   0.46967   0.47640   0.48267   0.48466
 Alpha virt. eigenvalues --    0.48804   0.49136   0.49223   0.49439   0.49555
 Alpha virt. eigenvalues --    0.50384   0.50463   0.50640   0.50797   0.51176
 Alpha virt. eigenvalues --    0.51370   0.51660   0.51833   0.52618   0.52897
 Alpha virt. eigenvalues --    0.53737   0.53924   0.54093   0.54839   0.55370
 Alpha virt. eigenvalues --    0.55466   0.56678   0.57239   0.57682   0.57816
 Alpha virt. eigenvalues --    0.57963   0.58207   0.58354   0.58803   0.58959
 Alpha virt. eigenvalues --    0.59230   0.59630   0.59673   0.60525   0.60791
 Alpha virt. eigenvalues --    0.60819   0.61342   0.61610   0.61972   0.62093
 Alpha virt. eigenvalues --    0.62221   0.62362   0.62520   0.63038   0.63205
 Alpha virt. eigenvalues --    0.63468   0.63721   0.63964   0.64002   0.64026
 Alpha virt. eigenvalues --    0.64378   0.64636   0.64699   0.65317   0.66559
 Alpha virt. eigenvalues --    0.66889   0.67134   0.67832   0.67952   0.68539
 Alpha virt. eigenvalues --    0.68834   0.69708   0.69958   0.70107   0.70554
 Alpha virt. eigenvalues --    0.71243   0.71604   0.72100   0.72268   0.72913
 Alpha virt. eigenvalues --    0.73123   0.73277   0.74279   0.74481   0.74502
 Alpha virt. eigenvalues --    0.75634   0.75655   0.76407   0.76411   0.77109
 Alpha virt. eigenvalues --    0.77170   0.77604   0.78103   0.78294   0.78611
 Alpha virt. eigenvalues --    0.78771   0.79423   0.79901   0.79943   0.80341
 Alpha virt. eigenvalues --    0.80466   0.81102   0.81952   0.82428   0.82806
 Alpha virt. eigenvalues --    0.83035   0.83613   0.83899   0.84336   0.84629
 Alpha virt. eigenvalues --    0.85305   0.85478   0.86354   0.86433   0.87245
 Alpha virt. eigenvalues --    0.87535   0.88153   0.89235   0.90103   0.90278
 Alpha virt. eigenvalues --    0.90391   0.90508   0.91395   0.91468   0.92401
 Alpha virt. eigenvalues --    0.93202   0.93677   0.94219   0.94359   0.95007
 Alpha virt. eigenvalues --    0.95256   0.95337   0.95918   0.96270   0.96840
 Alpha virt. eigenvalues --    0.97287   0.97617   0.98399   0.98756   0.99044
 Alpha virt. eigenvalues --    0.99170   0.99669   1.00603   1.01526   1.01845
 Alpha virt. eigenvalues --    1.02107   1.02304   1.02357   1.02899   1.03402
 Alpha virt. eigenvalues --    1.03816   1.03836   1.04431   1.04687   1.05032
 Alpha virt. eigenvalues --    1.05419   1.05705   1.06143   1.06237   1.06587
 Alpha virt. eigenvalues --    1.06679   1.06748   1.06905   1.07361   1.07532
 Alpha virt. eigenvalues --    1.07904   1.08265   1.08883   1.08990   1.09556
 Alpha virt. eigenvalues --    1.10071   1.10072   1.11052   1.11165   1.11708
 Alpha virt. eigenvalues --    1.11892   1.12135   1.12681   1.13175   1.13426
 Alpha virt. eigenvalues --    1.13854   1.14259   1.14581   1.15174   1.15317
 Alpha virt. eigenvalues --    1.15815   1.16372   1.16515   1.17003   1.18238
 Alpha virt. eigenvalues --    1.18446   1.19262   1.19994   1.20016   1.22018
 Alpha virt. eigenvalues --    1.22712   1.23441   1.23517   1.24777   1.25595
 Alpha virt. eigenvalues --    1.26404   1.27377   1.27898   1.27956   1.30458
 Alpha virt. eigenvalues --    1.31425   1.31585   1.32287   1.32610   1.34168
 Alpha virt. eigenvalues --    1.34858   1.35428   1.36151   1.36650   1.37786
 Alpha virt. eigenvalues --    1.39060   1.39725   1.40199   1.40436   1.41321
 Alpha virt. eigenvalues --    1.41343   1.42065   1.42353   1.42756   1.42818
 Alpha virt. eigenvalues --    1.43012   1.44071   1.44620   1.44982   1.45010
 Alpha virt. eigenvalues --    1.45148   1.46753   1.47104   1.47164   1.47572
 Alpha virt. eigenvalues --    1.47797   1.48220   1.48530   1.49153   1.49563
 Alpha virt. eigenvalues --    1.49701   1.49904   1.50101   1.50612   1.50975
 Alpha virt. eigenvalues --    1.51144   1.51649   1.52147   1.52626   1.52961
 Alpha virt. eigenvalues --    1.53044   1.54037   1.54338   1.54680   1.55338
 Alpha virt. eigenvalues --    1.55368   1.55566   1.55749   1.55807   1.56405
 Alpha virt. eigenvalues --    1.57076   1.57667   1.58372   1.58605   1.59097
 Alpha virt. eigenvalues --    1.59579   1.60548   1.60858   1.61428   1.62083
 Alpha virt. eigenvalues --    1.62144   1.62209   1.62721   1.63173   1.65048
 Alpha virt. eigenvalues --    1.65202   1.65547   1.66318   1.67086   1.68006
 Alpha virt. eigenvalues --    1.69067   1.69385   1.69784   1.70338   1.71073
 Alpha virt. eigenvalues --    1.71102   1.71338   1.71925   1.72005   1.72216
 Alpha virt. eigenvalues --    1.73264   1.73656   1.73887   1.74200   1.74274
 Alpha virt. eigenvalues --    1.74605   1.75013   1.75251   1.76587   1.76879
 Alpha virt. eigenvalues --    1.77502   1.79075   1.79199   1.79530   1.80018
 Alpha virt. eigenvalues --    1.80160   1.80779   1.81396   1.81402   1.82010
 Alpha virt. eigenvalues --    1.82422   1.82797   1.82916   1.83282   1.83886
 Alpha virt. eigenvalues --    1.84596   1.84853   1.85184   1.85272   1.85388
 Alpha virt. eigenvalues --    1.85758   1.86547   1.86901   1.87743   1.88169
 Alpha virt. eigenvalues --    1.88413   1.88504   1.88730   1.88878   1.89169
 Alpha virt. eigenvalues --    1.89402   1.89972   1.90064   1.90879   1.91116
 Alpha virt. eigenvalues --    1.91189   1.91940   1.92093   1.92400   1.93011
 Alpha virt. eigenvalues --    1.93421   1.93504   1.94262   1.94365   1.94398
 Alpha virt. eigenvalues --    1.95109   1.95176   1.95529   1.96226   1.96458
 Alpha virt. eigenvalues --    1.97305   1.97358   1.97403   1.97474   1.99174
 Alpha virt. eigenvalues --    1.99702   1.99785   2.00924   2.00987   2.01562
 Alpha virt. eigenvalues --    2.01768   2.01910   2.02458   2.03433   2.04975
 Alpha virt. eigenvalues --    2.05872   2.07644   2.07862   2.08864   2.09405
 Alpha virt. eigenvalues --    2.09449   2.10585   2.11010   2.11434   2.11931
 Alpha virt. eigenvalues --    2.12749   2.12759   2.13641   2.13823   2.15086
 Alpha virt. eigenvalues --    2.15663   2.16468   2.16601   2.17341   2.18274
 Alpha virt. eigenvalues --    2.19218   2.20146   2.20204   2.21747   2.22611
 Alpha virt. eigenvalues --    2.22731   2.23419   2.23513   2.23931   2.24060
 Alpha virt. eigenvalues --    2.24356   2.25911   2.26370   2.26565   2.26891
 Alpha virt. eigenvalues --    2.27026   2.27959   2.28338   2.28494   2.29119
 Alpha virt. eigenvalues --    2.29374   2.30458   2.31503   2.32048   2.33121
 Alpha virt. eigenvalues --    2.34746   2.35039   2.36190   2.37022   2.38606
 Alpha virt. eigenvalues --    2.38908   2.40240   2.40404   2.41928   2.41999
 Alpha virt. eigenvalues --    2.42528   2.43489   2.44939   2.45148   2.45376
 Alpha virt. eigenvalues --    2.46255   2.46488   2.46889   2.47375   2.50029
 Alpha virt. eigenvalues --    2.50221   2.52687   2.52852   2.53780   2.54178
 Alpha virt. eigenvalues --    2.54796   2.55253   2.56325   2.56942   2.57433
 Alpha virt. eigenvalues --    2.57988   2.58561   2.58716   2.59316   2.59768
 Alpha virt. eigenvalues --    2.59921   2.60852   2.61053   2.61311   2.61382
 Alpha virt. eigenvalues --    2.61584   2.62468   2.62551   2.63120   2.63329
 Alpha virt. eigenvalues --    2.63743   2.63981   2.64593   2.64772   2.65318
 Alpha virt. eigenvalues --    2.65526   2.66474   2.66536   2.66763   2.67296
 Alpha virt. eigenvalues --    2.67371   2.67944   2.68305   2.68676   2.68997
 Alpha virt. eigenvalues --    2.69190   2.69376   2.69619   2.70048   2.70069
 Alpha virt. eigenvalues --    2.70661   2.70682   2.71354   2.71570   2.71651
 Alpha virt. eigenvalues --    2.72150   2.73123   2.73478   2.73833   2.74420
 Alpha virt. eigenvalues --    2.74548   2.75288   2.75531   2.75686   2.76947
 Alpha virt. eigenvalues --    2.77362   2.77379   2.77706   2.78007   2.78398
 Alpha virt. eigenvalues --    2.79284   2.79489   2.80221   2.80386   2.81160
 Alpha virt. eigenvalues --    2.81229   2.81566   2.82369   2.82826   2.83771
 Alpha virt. eigenvalues --    2.83887   2.84611   2.85338   2.85998   2.86596
 Alpha virt. eigenvalues --    2.86967   2.87319   2.87781   2.88710   2.90108
 Alpha virt. eigenvalues --    2.90464   2.90689   2.90914   2.92342   2.92603
 Alpha virt. eigenvalues --    2.93077   2.93603   2.93858   2.94757   2.95391
 Alpha virt. eigenvalues --    2.96141   2.96285   2.97252   2.98567   2.98714
 Alpha virt. eigenvalues --    2.98726   3.00456   3.00952   3.03447   3.03516
 Alpha virt. eigenvalues --    3.05893   3.06933   3.08349   3.09532   3.09584
 Alpha virt. eigenvalues --    3.10891   3.10950   3.15561   3.16085   3.16667
 Alpha virt. eigenvalues --    3.17415   3.18041   3.18339   3.19680   3.20558
 Alpha virt. eigenvalues --    3.21763   3.22517   3.23629   3.25646   3.29744
 Alpha virt. eigenvalues --    3.30143   3.31184   3.31235   3.32036   3.33979
 Alpha virt. eigenvalues --    3.35383   3.35578   3.36629   3.37303   3.37632
 Alpha virt. eigenvalues --    3.37867   3.38142   3.39085   3.39717   3.40540
 Alpha virt. eigenvalues --    3.41768   3.42093   3.42803   3.43681   3.45221
 Alpha virt. eigenvalues --    3.45590   3.46387   3.47350   3.49611   3.49779
 Alpha virt. eigenvalues --    3.50683   3.51580   3.51967   3.52949   3.53112
 Alpha virt. eigenvalues --    3.56692   3.57421   3.58799   3.59351   3.61485
 Alpha virt. eigenvalues --    3.62537   3.63130   3.63476   3.64707   3.65384
 Alpha virt. eigenvalues --    3.65651   3.67037   3.67456   3.68819   3.68854
 Alpha virt. eigenvalues --    3.69558   3.70526   3.71349   3.71886   4.00021
 Alpha virt. eigenvalues --    4.00059   4.01207   4.01495   4.02762   4.02802
 Alpha virt. eigenvalues --    4.03298   4.03575   4.15730   4.16222   4.17393
 Alpha virt. eigenvalues --    4.19486   4.20177   4.20755   4.21221   4.21898
 Alpha virt. eigenvalues --    4.22073   4.24274   4.24467   4.26086   4.29121
 Alpha virt. eigenvalues --    4.30593   4.38171   4.41520   4.61717   4.64886
 Alpha virt. eigenvalues --    4.78398   4.79097   4.79833   4.81136   4.81426
 Alpha virt. eigenvalues --    4.82141   4.82492   4.83069   4.85265   4.85511
 Alpha virt. eigenvalues --   23.40383  23.44684  23.55310  23.60572  23.69721
 Alpha virt. eigenvalues --   23.74402  23.78432  23.79579  23.80871  23.82080
 Alpha virt. eigenvalues --   23.83053  23.85225  23.86505  23.88070  23.89320
 Alpha virt. eigenvalues --   23.89744  23.91125  23.91410  23.92627  23.95455
 Alpha virt. eigenvalues --   23.96809  23.98690  23.98868  23.99906  24.08863
 Alpha virt. eigenvalues --   24.09375  24.10112  24.10489  24.11170  24.11791
 Alpha virt. eigenvalues --   24.11992  24.13256  24.13720  24.13814  24.15135
 Alpha virt. eigenvalues --   24.15166  24.15220  24.15908  24.16855  24.16889
 Alpha virt. eigenvalues --   24.19825  24.19870  24.21707  24.21772
          Condensed to atoms (all electrons):
 Mulliken charges:
               1
     1  C   -0.047387
     2  C   -0.048118
     3  C   -0.106641
     4  C   -0.045264
     5  C   -0.085420
     6  C   -0.084859
     7  C   -0.080939
     8  C   -0.033756
     9  C    0.005504
    10  C   -0.048561
    11  H    0.086356
    12  H    0.076873
    13  H    0.078558
    14  H    0.085622
    15  H    0.098096
    16  H    0.099376
    17  C   -0.085408
    18  C   -0.033756
    19  C    0.000610
    20  C   -0.048561
    21  H    0.075593
    22  H    0.077267
    23  C   -0.080939
    24  C   -0.047387
    25  C    0.005504
    26  C   -0.048118
    27  H    0.076873
    28  H    0.078558
    29  C   -0.106641
    30  C   -0.085420
    31  C   -0.045264
    32  C   -0.084859
    33  H    0.086356
    34  H    0.099376
    35  H    0.098096
    36  H    0.085622
    37  C   -0.012557
    38  C   -0.137703
    39  C   -0.064672
    40  C   -0.039579
    41  C   -0.085140
    42  C   -0.129069
    43  C   -0.033676
    44  C    0.001091
    45  C    0.001187
    46  C   -0.146579
    47  H    0.077849
    48  H    0.069325
    49  H    0.131320
    50  H    0.134059
    51  H    0.082752
    52  H    0.090217
    53  C   -0.037606
    54  C    0.001091
    55  C   -0.003949
    56  C   -0.146579
    57  H    0.067944
    58  H    0.129022
    59  C   -0.033676
    60  C   -0.012557
    61  C    0.001187
    62  C   -0.137703
    63  H    0.069325
    64  H    0.131320
    65  C   -0.064672
    66  C   -0.085140
    67  C   -0.039579
    68  C   -0.129069
    69  H    0.077849
    70  H    0.090217
    71  H    0.082752
    72  H    0.134059
 Sum of Mulliken charges =   0.00000
 Mulliken charges with hydrogens summed into heavy atoms:
               1
     1  C   -0.047387
     2  C   -0.048118
     3  C   -0.020285
     4  C    0.040358
     5  C    0.013956
     6  C    0.013237
     7  C   -0.004066
     8  C   -0.033756
     9  C    0.084062
    10  C   -0.048561
    17  C   -0.009815
    18  C   -0.033756
    19  C    0.077878
    20  C   -0.048561
    23  C   -0.004066
    24  C   -0.047387
    25  C    0.084062
    26  C   -0.048118
    29  C   -0.020285
    30  C    0.013956
    31  C    0.040358
    32  C    0.013237
    37  C   -0.012557
    38  C   -0.137703
    39  C    0.013177
    40  C    0.094480
    41  C    0.005077
    42  C   -0.046317
    43  C    0.035649
    44  C    0.001091
    45  C    0.132506
    46  C   -0.146579
    53  C    0.030338
    54  C    0.001091
    55  C    0.125073
    56  C   -0.146579
    59  C    0.035649
    60  C   -0.012557
    61  C    0.132506
    62  C   -0.137703
    65  C    0.013177
    66  C    0.005077
    67  C    0.094480
    68  C   -0.046317
         Mulliken charges condensed to fragments:
      1     -0.033058
      2      0.033058
 Electronic spatial extent (au):  <R**2>=          25278.7399
 Charge=              0.0000 electrons
 Dipole moment (field-independent basis, Debye):
    X=             -0.7536    Y=             -1.8727    Z=              0.0000  Tot=              2.0187
 Quadrupole moment (field-independent basis, Debye-Ang):
   XX=           -245.4145   YY=           -249.9656   ZZ=           -219.9444
   XY=              0.3706   XZ=              0.0000   YZ=              0.0000
 Traceless Quadrupole moment (field-independent basis, Debye-Ang):
   XX=             -6.9730   YY=            -11.5241   ZZ=             18.4971
   XY=              0.3706   XZ=              0.0000   YZ=              0.0000
 Octapole moment (field-independent basis, Debye-Ang**2):
  XXX=            -45.3910  YYY=            162.4833  ZZZ=              0.0000  XYY=              7.8646
  XXY=            -69.9070  XXZ=              0.0000  XZZ=            -13.3320  YZZ=            -41.7228
  YYZ=              0.0000  XYZ=              0.0000
 Hexadecapole moment (field-independent basis, Debye-Ang**3):
 XXXX=          -1670.1807 YYYY=         -10426.9254 ZZZZ=         -21053.6409 XXXY=           -965.9570
 XXXZ=              0.0000 YYYX=           -976.4329 YYYZ=              0.0000 ZZZX=              0.0000
 ZZZY=              0.0000 XXYY=          -2088.2403 XXZZ=          -4216.6708 YYZZ=          -5557.8180
 XXYZ=              0.0000 YYXZ=              0.0000 ZZXY=           -285.0431
 N-N= 4.683957586598D+03 E-N=-1.329852569043D+04  KE= 1.686748306066D+03
 Symmetry A'   KE= 9.134636745171D+02
 Symmetry A"   KE= 7.732846315494D+02
 No NMR shielding tensors so no spin-rotation constants.
 Leave Link  601 at Wed Sep 27 16:39:55 2023, MaxMem=  3221225472 cpu:              50.7 elap:               1.4
 (Enter /home/center/opt/aarch64/apps/gaussian16/c01/g16/l122.exe)
 CPIOFr:  IOpCl= 0 IRwI=-1 IRwCP=  731 ICalc= -1 LCPTot=     1419224 Len1MO=     3708034 IndFrg=     1419224
 CPIOFr:  IOpCl= 0 IRwI=-1 IRwCP=  731 ICalc=  0 LCPTot=     1419224 Len1MO=     3708034 IndFrg=     5127258
 Counterpoise: doing calculation for fragment   1 using the basis set of the full-system, NewBq=T
 Leave Link  122 at Wed Sep 27 16:39:57 2023, MaxMem=  3221225472 cpu:               8.5 elap:               0.3
 (Enter /home/center/opt/aarch64/apps/gaussian16/c01/g16/l301.exe)
 Basis read from rwf:  (5D, 7F)
 No pseudopotential information found on rwf file.
 There are   528 symmetry adapted cartesian basis functions of A'  symmetry.
 There are   476 symmetry adapted cartesian basis functions of A"  symmetry.
 There are   504 symmetry adapted basis functions of A'  symmetry.
 There are   456 symmetry adapted basis functions of A"  symmetry.
   960 basis functions,  1632 primitive gaussians,  1004 cartesian basis functions
    73 alpha electrons       73 beta electrons
       nuclear repulsion energy      1494.3575060551 Hartrees.
 IExCor=  402 DFT=T Ex+Corr=B3LYP ExCW=0 ScaHFX=  0.200000
 ScaDFX=  0.800000  0.720000  1.000000  0.810000 ScalE2=  1.000000  1.000000
 IRadAn=      5 IRanWt=     -1 IRanGd=            0 ICorTp=0 IEmpDi=131
 NAtoms=   72 NActive=   72 NUniq=   40 SFac= 3.24D+00 NAtFMM=   60 NAOKFM=T Big=F
 Integral buffers will be    131072 words long.
 Raffenetti 2 integral format.
 Two-electron integral symmetry is turned on.
 R6Disp:  Grimme-D3 Dispersion energy=       -0.0303938888 Hartrees.
 Nuclear repulsion after empirical dispersion term =     1494.3271121663 Hartrees.
 No density basis found on file    718.
 Leave Link  301 at Wed Sep 27 16:40:00 2023, MaxMem=  3221225472 cpu:               2.0 elap:               0.1
 (Enter /home/center/opt/aarch64/apps/gaussian16/c01/g16/l302.exe)
 NPDir=0 NMtPBC=     1 NCelOv=     1 NCel=       1 NClECP=     1 NCelD=      1
         NCelK=      1 NCelE2=     1 NClLst=     1 CellRange=     0.0.
 One-electron integrals computed using PRISM.
 One-electron integral symmetry used in STVInt
 NBasis=   960 RedAO= T EigKep=  3.71D-05  NBF=   504   456
 NBsUse=   960 1.00D-06 EigRej= -1.00D+00 NBFU=   504   456
 Precomputing XC quadrature grid using
 IXCGrd= 4 IRadAn=           5 IRanWt=          -1 IRanGd=           0 AccXCQ= 0.00D+00.
 Generated NRdTot=       0 NPtTot=           0 NUsed=           0 NTot=          32
 NSgBfM=   991   991   991   991   991 MxSgAt=    72 MxSgA2=    72.
 Leave Link  302 at Wed Sep 27 16:40:04 2023, MaxMem=  3221225472 cpu:              59.4 elap:               1.6
 (Enter /home/center/opt/aarch64/apps/gaussian16/c01/g16/l303.exe)
 DipDrv:  MaxL=1.
 Leave Link  303 at Wed Sep 27 16:40:06 2023, MaxMem=  3221225472 cpu:              12.7 elap:               0.4
 (Enter /home/center/opt/aarch64/apps/gaussian16/c01/g16/l401.exe)
 ExpMin= 1.03D-01 ExpMax= 4.56D+03 ExpMxC= 6.82D+02 IAcc=3 IRadAn=         5 AccDes= 0.00D+00
 Harris functional with IExCor=  402 and IRadAn=       5 diagonalized for initial guess.
 HarFok:  IExCor=  402 AccDes= 0.00D+00 IRadAn=         5 IDoV= 1 UseB2=F ITyADJ=14
 ICtDFT=  3500011 ScaDFX=  1.000000  1.000000  1.000000  1.000000
 FoFCou: FMM=F IPFlag=           0 FMFlag=      100000 FMFlg1=        2000
         NFxFlg=           0 DoJE=T BraDBF=F KetDBF=T FulRan=T
         wScrn=  0.000000 ICntrl=       500 IOpCl=  0 I1Cent=   200000004 NGrid=           0
         NMat0=    1 NMatS0=      1 NMatT0=    0 NMatD0=    1 NMtDS0=    0 NMtDT0=    0
 Petite list used in FoFCou.
 Harris En= -847.067131868249    
 JPrj=0 DoOrth=F DoCkMO=F.
 Initial guess orbital symmetries:
       Occupied  (A") (A') (A') (A") (A") (A') (A") (A') (A") (A')
                 (A") (A') (A') (A') (A") (A') (A") (A') (A") (A')
                 (A') (A") (A') (A") (A') (A") (A') (A') (A") (A')
                 (A") (A") (A') (A') (A") (A") (A') (A") (A') (A')
                 (A') (A") (A") (A") (A') (A') (A") (A') (A') (A")
                 (A') (A") (A") (A') (A') (A") (A') (A") (A') (A")
                 (A") (A') (A') (A") (A') (A") (A') (A") (A') (A')
                 (A") (A") (A')
       Virtual   (A') (A") (A") (A') (A') (A") (A') (A") (A') (A")
                 (A') (A') (A") (A') (A") (A') (A') (A") (A') (A")
                 (A") (A") (A') (A') (A") (A') (A') (A') (A') (A")
                 (A') (A") (A") (A') (A') (A") (A') (A") (A") (A')
                 (A') (A") (A") (A') (A") (A') (A") (A') (A") (A')
                 (A') (A") (A') (A") (A') (A') (A") (A") (A') (A")
                 (A') (A') (A') (A') (A") (A") (A") (A") (A') (A')
                 (A") (A') (A") (A') (A') (A') (A") (A') (A') (A')
                 (A") (A") (A") (A") (A') (A') (A') (A") (A") (A')
                 (A") (A") (A") (A') (A') (A") (A') (A') (A') (A")
                 (A') (A") (A') (A') (A") (A') (A") (A') (A') (A")
                 (A") (A') (A') (A") (A") (A') (A") (A") (A") (A')
                 (A') (A') (A") (A") (A') (A') (A') (A") (A") (A')
                 (A') (A') (A") (A") (A') (A") (A') (A") (A') (A')
                 (A') (A") (A') (A') (A") (A") (A') (A") (A") (A')
                 (A") (A') (A") (A") (A') (A') (A") (A') (A') (A")
                 (A') (A") (A') (A") (A') (A') (A") (A") (A') (A")
                 (A") (A') (A") (A') (A') (A') (A") (A") (A') (A")
                 (A") (A') (A') (A") (A') (A") (A') (A") (A') (A")
                 (A') (A') (A') (A") (A') (A") (A') (A") (A') (A')
                 (A") (A") (A') (A') (A") (A") (A") (A') (A") (A')
                 (A") (A') (A") (A') (A') (A") (A') (A") (A') (A")
                 (A") (A') (A') (A") (A') (A") (A') (A') (A") (A')
                 (A') (A") (A") (A') (A") (A') (A") (A") (A') (A")
                 (A') (A') (A") (A') (A") (A') (A") (A") (A') (A")
                 (A') (A') (A") (A') (A") (A') (A") (A') (A") (A')
                 (A") (A') (A') (A") (A') (A") (A') (A') (A") (A")
                 (A') (A') (A") (A") (A") (A') (A') (A") (A") (A')
                 (A") (A') (A') (A") (A') (A") (A') (A") (A') (A")
                 (A') (A') (A") (A') (A') (A") (A') (A") (A') (A")
                 (A') (A") (A') (A') (A") (A') (A") (A") (A') (A")
                 (A") (A') (A") (A') (A') (A") (A') (A") (A') (A")
                 (A') (A") (A') (A") (A') (A') (A") (A') (A') (A")
                 (A') (A') (A") (A') (A") (A') (A") (A') (A') (A")
                 (A") (A") (A') (A") (A") (A') (A') (A") (A') (A')
                 (A") (A') (A") (A') (A") (A') (A') (A") (A') (A')
                 (A") (A') (A") (A') (A") (A') (A") (A") (A') (A')
                 (A") (A") (A") (A") (A') (A") (A') (A') (A") (A')
                 (A') (A") (A") (A') (A") (A') (A') (A") (A') (A")
                 (A') (A") (A") (A') (A') (A') (A") (A') (A") (A")
                 (A') (A') (A") (A") (A") (A') (A") (A") (A') (A')
                 (A') (A") (A') (A') (A") (A') (A") (A') (A') (A")
                 (A") (A') (A") (A") (A') (A") (A") (A') (A") (A')
                 (A") (A') (A') (A') (A') (A") (A') (A") (A") (A')
                 (A") (A') (A') (A") (A') (A") (A') (A') (A") (A")
                 (A") (A') (A') (A') (A") (A") (A') (A") (A') (A")
                 (A") (A') (A') (A") (A') (A") (A") (A') (A') (A")
                 (A') (A') (A") (A") (A") (A') (A") (A') (A') (A")
                 (A") (A') (A") (A') (A") (A') (A') (A") (A") (A')
                 (A") (A') (A') (A') (A") (A") (A') (A") (A') (A")
                 (A') (A") (A') (A") (A') (A") (A') (A") (A') (A')
                 (A") (A') (A") (A") (A") (A") (A') (A') (A') (A')
                 (A") (A') (A") (A') (A") (A') (A") (A') (A") (A")
                 (A') (A') (A') (A") (A') (A") (A") (A') (A') (A")
                 (A') (A") (A') (A") (A') (A') (A") (A') (A') (A")
                 (A") (A') (A") (A') (A") (A') (A') (A") (A") (A')
                 (A') (A") (A') (A") (A") (A") (A') (A") (A') (A")
                 (A') (A') (A') (A') (A") (A') (A') (A") (A') (A")
                 (A") (A") (A") (A') (A') (A') (A") (A") (A") (A')
                 (A') (A') (A') (A") (A') (A") (A') (A") (A') (A")
                 (A") (A') (A") (A") (A') (A") (A') (A') (A") (A')
                 (A") (A') (A') (A") (A') (A") (A') (A") (A') (A')
                 (A") (A') (A") (A") (A') (A") (A") (A') (A') (A")
                 (A") (A") (A') (A") (A") (A') (A') (A') (A') (A')
                 (A") (A") (A") (A') (A") (A') (A') (A") (A') (A")
                 (A") (A') (A') (A") (A") (A') (A") (A') (A") (A')
                 (A") (A') (A") (A") (A') (A") (A') (A') (A") (A')
                 (A') (A") (A') (A") (A') (A") (A') (A") (A') (A')
                 (A") (A') (A') (A") (A") (A') (A') (A') (A") (A")
                 (A') (A") (A') (A') (A") (A") (A') (A") (A') (A')
[...]
                 (A') (A") (A') (A') (A') (A") (A") (A") (A") (A')
                 (A') (A') (A") (A") (A') (A") (A') (A") (A') (A')
                 (A") (A") (A')
       Virtual   (A') (A") (A") (A') (A') (A") (A') (A') (A') (A")
                 (A") (A') (A") (A') (A") (A') (A") (A") (A') (A")
                 (A') (A') (A") (A') (A") (A') (A') (A') (A') (A")
                 (A") (A") (A") (A') (A') (A") (A') (A") (A') (A")
                 (A') (A') (A') (A") (A') (A") (A") (A') (A') (A")
                 (A") (A') (A') (A") (A') (A") (A") (A") (A') (A")
                 (A') (A') (A') (A') (A') (A") (A') (A') (A") (A")
                 (A") (A') (A') (A') (A") (A') (A") (A") (A") (A')
                 (A') (A") (A') (A") (A") (A') (A") (A') (A') (A')
                 (A') (A') (A") (A") (A") (A") (A') (A") (A') (A")
                 (A') (A') (A') (A") (A") (A') (A') (A") (A') (A")
                 (A') (A") (A") (A") (A') (A') (A") (A') (A') (A")
                 (A') (A") (A") (A') (A') (A") (A') (A") (A') (A")
                 (A") (A') (A') (A') (A') (A") (A") (A") (A') (A")
                 (A') (A") (A') (A") (A') (A') (A") (A") (A') (A")
                 (A') (A") (A') (A") (A') (A') (A") (A') (A") (A")
                 (A') (A") (A') (A') (A") (A") (A') (A") (A') (A")
                 (A') (A') (A") (A') (A') (A") (A") (A') (A') (A')
                 (A") (A') (A") (A") (A") (A") (A') (A") (A') (A')
                 (A") (A') (A") (A') (A') (A') (A") (A') (A") (A')
                 (A") (A") (A') (A') (A") (A") (A') (A') (A") (A')
                 (A') (A') (A') (A") (A") (A") (A") (A') (A') (A")
                 (A') (A") (A") (A') (A") (A') (A") (A') (A") (A')
                 (A") (A') (A') (A") (A') (A") (A") (A') (A') (A")
                 (A") (A') (A') (A") (A") (A') (A") (A") (A") (A')
                 (A') (A") (A') (A') (A") (A') (A') (A") (A') (A")
                 (A") (A') (A") (A') (A') (A") (A") (A") (A') (A')
                 (A") (A') (A') (A") (A") (A") (A') (A") (A') (A')
                 (A") (A') (A") (A') (A") (A') (A') (A') (A") (A')
                 (A") (A") (A') (A') (A") (A") (A') (A") (A') (A")
                 (A') (A') (A") (A") (A') (A') (A") (A') (A') (A')
                 (A") (A") (A') (A") (A') (A") (A') (A") (A') (A')
                 (A') (A") (A") (A") (A') (A") (A') (A') (A') (A")
                 (A") (A') (A") (A') (A') (A") (A') (A") (A") (A')
                 (A') (A") (A') (A") (A") (A') (A') (A") (A') (A")
                 (A') (A") (A') (A") (A') (A") (A") (A') (A') (A")
                 (A') (A") (A') (A') (A") (A") (A') (A") (A') (A')
                 (A") (A') (A") (A') (A') (A") (A') (A") (A') (A")
                 (A") (A') (A") (A') (A") (A') (A") (A') (A') (A")
                 (A") (A') (A") (A') (A') (A") (A") (A') (A') (A")
                 (A') (A") (A') (A") (A') (A') (A")
 The electronic state is 1-A'.
 Alpha  occ. eigenvalues --  -10.18931 -10.18930 -10.18896 -10.18895 -10.18848
 Alpha  occ. eigenvalues --  -10.18848 -10.18813 -10.18813 -10.17956 -10.17955
 Alpha  occ. eigenvalues --  -10.17920 -10.17920 -10.17919 -10.17919 -10.17875
 Alpha  occ. eigenvalues --  -10.17875 -10.17863 -10.17863 -10.17808 -10.17808
 Alpha  occ. eigenvalues --  -10.17781 -10.17781  -0.89340  -0.87865  -0.85549
 Alpha  occ. eigenvalues --   -0.82415  -0.79820  -0.78521  -0.78314  -0.75991
 Alpha  occ. eigenvalues --   -0.74255  -0.72901  -0.69196  -0.67344  -0.62728
 Alpha  occ. eigenvalues --   -0.62370  -0.61108  -0.59964  -0.59301  -0.57689
 Alpha  occ. eigenvalues --   -0.52709  -0.52573  -0.52293  -0.49654  -0.48513
 Alpha  occ. eigenvalues --   -0.47160  -0.46110  -0.45590  -0.45476  -0.43928
 Alpha  occ. eigenvalues --   -0.43182  -0.42578  -0.41808  -0.41572  -0.41386
 Alpha  occ. eigenvalues --   -0.40692  -0.40405  -0.39579  -0.38193  -0.36732
 Alpha  occ. eigenvalues --   -0.36341  -0.35550  -0.34094  -0.33809  -0.33058
 Alpha  occ. eigenvalues --   -0.32930  -0.31612  -0.29665  -0.28406  -0.26623
 Alpha  occ. eigenvalues --   -0.24364  -0.22582  -0.17855
 Alpha virt. eigenvalues --   -0.09755  -0.04464  -0.02747  -0.00147   0.02073
 Alpha virt. eigenvalues --    0.02370   0.03189   0.04746   0.04859   0.04871
 Alpha virt. eigenvalues --    0.06161   0.06575   0.07968   0.08162   0.08303
 Alpha virt. eigenvalues --    0.09607   0.10049   0.11524   0.11533   0.13796
 Alpha virt. eigenvalues --    0.14111   0.14670   0.18092   0.18194   0.18832
 Alpha virt. eigenvalues --    0.19391   0.22815   0.23002   0.24379   0.24942
 Alpha virt. eigenvalues --    0.25581   0.27528   0.27575   0.28012   0.28228
 Alpha virt. eigenvalues --    0.28947   0.29389   0.30158   0.30759   0.31175
 Alpha virt. eigenvalues --    0.32897   0.34528   0.36420   0.36484   0.37134
 Alpha virt. eigenvalues --    0.37503   0.37629   0.37651   0.38116   0.38643
 Alpha virt. eigenvalues --    0.39094   0.39439   0.39739   0.40236   0.40435
 Alpha virt. eigenvalues --    0.41918   0.41926   0.41940   0.42289   0.42318
 Alpha virt. eigenvalues --    0.42643   0.43748   0.44233   0.44835   0.45295
 Alpha virt. eigenvalues --    0.45683   0.45924   0.45953   0.46379   0.47165
 Alpha virt. eigenvalues --    0.47805   0.47809   0.47978   0.48073   0.48231
 Alpha virt. eigenvalues --    0.48568   0.49414   0.49572   0.51377   0.51846
 Alpha virt. eigenvalues --    0.52370   0.53118   0.53671   0.55998   0.57923
 Alpha virt. eigenvalues --    0.57955   0.59048   0.59201   0.60433   0.60585
 Alpha virt. eigenvalues --    0.60693   0.61101   0.61690   0.62105   0.62173
 Alpha virt. eigenvalues --    0.63432   0.63481   0.64458   0.64535   0.65533
 Alpha virt. eigenvalues --    0.66693   0.66910   0.67680   0.67724   0.70658
 Alpha virt. eigenvalues --    0.71305   0.71405   0.71494   0.72803   0.73989
 Alpha virt. eigenvalues --    0.75405   0.75894   0.76289   0.77801   0.77809
 Alpha virt. eigenvalues --    0.78943   0.79160   0.79723   0.81162   0.81509
 Alpha virt. eigenvalues --    0.82881   0.83001   0.84383   0.84585   0.84713
 Alpha virt. eigenvalues --    0.88087   0.89711   0.89765   0.91536   0.92083
 Alpha virt. eigenvalues --    0.92578   0.93749   0.95806   0.96107   0.96442
 Alpha virt. eigenvalues --    0.96590   0.96905   0.98547   1.00356   1.01118
 Alpha virt. eigenvalues --    1.02686   1.03027   1.03354   1.04405   1.05244
 Alpha virt. eigenvalues --    1.05439   1.05525   1.05950   1.07395   1.07547
 Alpha virt. eigenvalues --    1.07686   1.08438   1.10005   1.10036   1.12070
 Alpha virt. eigenvalues --    1.13223   1.13544   1.13650   1.14526   1.15341
 Alpha virt. eigenvalues --    1.17432   1.18332   1.19657   1.20432   1.23014
 Alpha virt. eigenvalues --    1.23618   1.27884   1.28234   1.30579   1.32076
 Alpha virt. eigenvalues --    1.32743   1.34942   1.37641   1.39236   1.39896
 Alpha virt. eigenvalues --    1.39942   1.40725   1.42751   1.43476   1.43554
 Alpha virt. eigenvalues --    1.45057   1.46086   1.47119   1.47538   1.48841
 Alpha virt. eigenvalues --    1.49280   1.49417   1.50258   1.50674   1.52268
 Alpha virt. eigenvalues --    1.52650   1.53402   1.54331   1.54372   1.54781
 Alpha virt. eigenvalues --    1.54807   1.57107   1.57715   1.58569   1.59882
 Alpha virt. eigenvalues --    1.60106   1.62692   1.63242   1.64856   1.66641
 Alpha virt. eigenvalues --    1.69292   1.69605   1.69709   1.70649   1.71804
 Alpha virt. eigenvalues --    1.72459   1.72619   1.73075   1.73096   1.73680
 Alpha virt. eigenvalues --    1.77494   1.78519   1.79157   1.79419   1.80511
 Alpha virt. eigenvalues --    1.81616   1.81887   1.82058   1.83581   1.84039
 Alpha virt. eigenvalues --    1.85487   1.87392   1.87456   1.87577   1.87728
 Alpha virt. eigenvalues --    1.88131   1.88613   1.90743   1.91387   1.92190
 Alpha virt. eigenvalues --    1.92193   1.92572   1.92670   1.93517   1.93938
 Alpha virt. eigenvalues --    1.94544   1.95483   1.97262   1.99429   2.00088
 Alpha virt. eigenvalues --    2.00602   2.01362   2.03019   2.05757   2.08293
 Alpha virt. eigenvalues --    2.09111   2.09256   2.09792   2.12192   2.14098
 Alpha virt. eigenvalues --    2.15528   2.15584   2.17200   2.19751   2.20833
 Alpha virt. eigenvalues --    2.21576   2.22525   2.23381   2.24503   2.26441
 Alpha virt. eigenvalues --    2.26972   2.27242   2.27719   2.28046   2.29391
 Alpha virt. eigenvalues --    2.33301   2.35725   2.39155   2.39384   2.40817
 Alpha virt. eigenvalues --    2.42649   2.43076   2.45776   2.45994   2.46870
 Alpha virt. eigenvalues --    2.51623   2.51954   2.53354   2.53485   2.55138
 Alpha virt. eigenvalues --    2.56159   2.58701   2.58838   2.59764   2.59776
 Alpha virt. eigenvalues --    2.60682   2.61147   2.61719   2.62222   2.63349
 Alpha virt. eigenvalues --    2.63999   2.64478   2.66054   2.66794   2.67121
 Alpha virt. eigenvalues --    2.67374   2.68356   2.68872   2.68876   2.69372
 Alpha virt. eigenvalues --    2.69557   2.69907   2.70083   2.70281   2.73482
 Alpha virt. eigenvalues --    2.74771   2.74836   2.76066   2.77101   2.77577
 Alpha virt. eigenvalues --    2.78232   2.78455   2.78850   2.80822   2.82359
 Alpha virt. eigenvalues --    2.85535   2.85993   2.86737   2.87294   2.90966
 Alpha virt. eigenvalues --    2.91783   2.92195   2.93676   2.95232   2.95887
 Alpha virt. eigenvalues --    2.99270   2.99858   3.03165   3.05604   3.06852
 Alpha virt. eigenvalues --    3.07371   3.15988   3.16029   3.16647   3.19843
 Alpha virt. eigenvalues --    3.20017   3.23601   3.29134   3.29680   3.31610
 Alpha virt. eigenvalues --    3.35095   3.35458   3.35677   3.35858   3.38023
 Alpha virt. eigenvalues --    3.39887   3.41413   3.44960   3.45362   3.47993
 Alpha virt. eigenvalues --    3.48278   3.50401   3.53073   3.57439   3.58649
 Alpha virt. eigenvalues --    3.61466   3.62620   3.63208   3.63698   3.65910
 Alpha virt. eigenvalues --    3.67534   3.67678   4.00384   4.00442   4.01859
 Alpha virt. eigenvalues --    4.02182   4.16133   4.16678   4.17360   4.21240
 Alpha virt. eigenvalues --    4.22396   4.22517   4.25488   4.38492   4.62290
 Alpha virt. eigenvalues --    4.79179   4.79740   4.80562   4.82562   4.83014
 Alpha virt. eigenvalues --   23.39176  23.54541  23.69085  23.77378  23.80419
 Alpha virt. eigenvalues --   23.81537  23.86099  23.89067  23.89154  23.92210
 Alpha virt. eigenvalues --   23.97563  23.98365  24.09049  24.09932  24.10529
 Alpha virt. eigenvalues --   24.12220  24.13779  24.14375  24.15775  24.15810
 Alpha virt. eigenvalues --   24.20452  24.20497
          Condensed to atoms (all electrons):
 Mulliken charges:
               1
     1  C    0.000000
     2  C    0.000000
     3  C    0.000000
     4  C    0.000000
     5  C    0.000000
     6  C    0.000000
     7  C    0.000000
     8  C    0.000000
     9  C    0.000000
    10  C    0.000000
    11  H    0.000000
    12  H    0.000000
    13  H    0.000000
    14  H    0.000000
    15  H    0.000000
    16  H    0.000000
    17  C    0.000000
    18  C    0.000000
    19  C    0.000000
    20  C    0.000000
    21  H    0.000000
    22  H    0.000000
    23  C    0.000000
    24  C    0.000000
    25  C    0.000000
    26  C    0.000000
    27  H    0.000000
    28  H    0.000000
    29  C    0.000000
    30  C    0.000000
    31  C    0.000000
    32  C    0.000000
    33  H    0.000000
    34  H    0.000000
    35  H    0.000000
    36  H    0.000000
    37  C   -0.059168
    38  C   -0.059168
    39  C   -0.055977
    40  C   -0.055977
    41  C   -0.092198
    42  C   -0.092198
    43  C   -0.016525
    44  C   -0.054498
    45  C   -0.016525
    46  C   -0.054498
    47  H    0.082122
    48  H    0.074853
    49  H    0.074853
    50  H    0.082122
    51  H    0.094847
    52  H    0.094847
    53  C   -0.020341
    54  C   -0.054498
    55  C   -0.020341
    56  C   -0.054498
    57  H    0.073428
    58  H    0.073428
    59  C   -0.016525
    60  C   -0.059168
    61  C   -0.016525
    62  C   -0.059168
    63  H    0.074853
    64  H    0.074853
    65  C   -0.055977
    66  C   -0.092198
    67  C   -0.055977
    68  C   -0.092198
    69  H    0.082122
    70  H    0.094847
    71  H    0.094847
    72  H    0.082122
 Sum of Mulliken charges =   0.00000
 Mulliken charges with hydrogens summed into heavy atoms:
               1
     1  C    0.000000
     2  C    0.000000
     3  C    0.000000
     4  C    0.000000
     5  C    0.000000
     6  C    0.000000
     7  C    0.000000
     8  C    0.000000
     9  C    0.000000
    10  C    0.000000
    17  C    0.000000
    18  C    0.000000
    19  C    0.000000
    20  C    0.000000
    23  C    0.000000
    24  C    0.000000
    25  C    0.000000
    26  C    0.000000
    29  C    0.000000
    30  C    0.000000
    31  C    0.000000
    32  C    0.000000
    37  C   -0.059168
    38  C   -0.059168
    39  C    0.026144
    40  C    0.026144
    41  C    0.002649
    42  C    0.002649
    43  C    0.058328
    44  C   -0.054498
    45  C    0.058328
    46  C   -0.054498
    53  C    0.053087
    54  C   -0.054498
    55  C    0.053087
    56  C   -0.054498
    59  C    0.058328
    60  C   -0.059168
    61  C    0.058328
    62  C   -0.059168
    65  C    0.026144
    66  C    0.002649
    67  C    0.026144
    68  C    0.002649
         Mulliken charges condensed to fragments:
      1      0.000000
      2      0.000000
 Electronic spatial extent (au):  <R**2>=          13241.0873
 Charge=              0.0000 electrons
 Dipole moment (field-independent basis, Debye):
    X=              0.0000    Y=              0.0000    Z=              0.0000  Tot=              0.0000
 Quadrupole moment (field-independent basis, Debye-Ang):
   XX=           -136.3921   YY=           -110.7480   ZZ=           -109.0115
   XY=              0.0000   XZ=              0.0000   YZ=              0.0000
 Traceless Quadrupole moment (field-independent basis, Debye-Ang):
   XX=            -17.6749   YY=              7.9692   ZZ=              9.7057
   XY=              0.0000   XZ=              0.0000   YZ=              0.0000
 Octapole moment (field-independent basis, Debye-Ang**2):
  XXX=            795.6610  YYY=            646.0631  ZZZ=              0.0000  XYY=            215.3544
  XXY=            265.2203  XXZ=              0.0000  XZZ=            211.9776  YZZ=            211.9776
  YYZ=              0.0000  XYZ=              0.0000
 Hexadecapole moment (field-independent basis, Debye-Ang**3):
 XXXX=          -3248.7987 YYYY=          -3629.3128 ZZZZ=         -10461.4324 XXXY=          -1547.1974
 XXXZ=              0.0000 YYYX=          -1256.2979 YYYZ=              0.0000 ZZZX=              0.0000
 ZZZY=              0.0000 XXYY=          -1190.9138 XXZZ=          -2620.1316 YYZZ=          -2381.4140
 XXYZ=              0.0000 YYXZ=              0.0000 ZZXY=           -412.1996
 N-N= 1.494327112237D+03 E-N=-4.953709176031D+03  KE= 8.433374905124D+02
 Symmetry A'   KE= 4.567052305464D+02
 Symmetry A"   KE= 3.866322599660D+02
 No NMR shielding tensors so no spin-rotation constants.
 Leave Link  601 at Wed Sep 27 16:57:26 2023, MaxMem=  3221225472 cpu:              19.4 elap:               0.5
 (Enter /home/center/opt/aarch64/apps/gaussian16/c01/g16/l122.exe)
 CPIOFr:  IOpCl= 0 IRwI=-1 IRwCP=  731 ICalc=  4 LCPTot=     1419224 Len1MO=     3708034 IndFrg=    19959394
 Restoring MOs from calculation   1 to rwf.
 CPIOFr:  IOpCl= 0 IRwI=-2 IRwCP=  731 ICalc=  0 LCPTot=     1419224 Len1MO=     3708034 IndFrg=     5127258
 Counterpoise corrected energy =   -1694.051175511738
                   BSSE energy =       0.001888214206
              sum of fragments =   -1694.039683044258
           complexation energy =      -8.40 kcal/mole (raw)
           complexation energy =      -7.21 kcal/mole (corrected)
 Leave Link  122 at Wed Sep 27 16:57:28 2023, MaxMem=  3221225472 cpu:               8.3 elap:               0.3
 (Enter /home/center/opt/aarch64/apps/gaussian16/c01/g16/l9999.exe)

 Test job not archived.
 1\1\GINC-FX0472\SP\RB3LYP\6-311G(d,p)\C44H28\Z40145W\27-Sep-2023\0\\#P
  TEST b3lyp/6-311G** EmpiricalDispersion=GD3 counterpoise=2\\pentacene
 _A1=0_A2=0_A3=45_p2\\0,1\C,0,-0.5039478476,0.5239478476,-3.6612755801\
 C,0,0.5239480325,-0.5039480325,-3.6612755629\C,0,-0.9861248463,1.00612
 48463,-4.9235927708\C,0,1.0061250889,-0.9861250889,-4.9235926697\C,0,-
 0.4963213507,0.5163213507,-6.096356521\C,0,0.5163216812,-0.4963216812,
 -6.0963564796\C,0,-0.9844684311,1.0044684311,-2.4533174875\C,0,-0.5044
 88426,0.524488426,-1.2140288145\C,0,1.0044685359,-0.9844685359,-2.4533
 173917\C,0,0.5244885437,-0.5044885437,-1.2140288362\H,0,-1.7533559667,
 1.7733559667,-4.9232600459\H,0,-1.7521866813,1.7721866813,-2.453928581
 5\H,0,1.7721859268,-1.7521859268,-2.4539284818\H,0,1.7733558421,-1.753
 3558421,-4.9232597785\H,0,0.8905568758,-0.8705568758,-7.0425276922\H,0
 ,-0.8705565046,0.8905565046,-7.042527775\C,0,-0.9848184961,1.004818496
 1,0.0099998782\C,0,-0.5044883957,0.5244883957,1.2340295553\C,0,1.00481
 85643,-0.9848185643,0.0099998696\C,0,0.5244885146,-0.5044885146,1.2340
 295261\H,0,-1.7524699697,1.7724699697,0.0099999205\H,0,1.772468921,-1.
 752468921,0.0099999641\C,0,-0.9844683048,1.0044683048,2.4733171385\C,0
 ,-0.5039477114,0.5239477114,3.681276331\C,0,1.0044684211,-0.9844684211
 ,2.4733170835\C,0,0.5239479079,-0.5039479079,3.6812763217\H,0,-1.75218
 65527,1.7721865527,2.4739285326\H,0,1.7721858092,-1.7521858092,2.47392
 83796\C,0,-0.9861245177,1.0061245177,4.9435920588\C,0,-0.4963209372,0.
 5163209372,6.116356633\C,0,1.0061247659,-0.9861247659,4.9435919377\C,0
 ,0.5163212637,-0.4963212637,6.1163566075\H,0,-1.7533556504,1.773355650
 4,4.9432601504\H,0,-0.8705567426,0.8905567426,7.0625274368\H,0,0.89055
 70967,-0.8705570967,7.0625272142\H,0,1.7733555414,-1.7533555414,4.9432
 599297\C,0,4.9960521524,0.5239478476,-3.6612755801\C,0,6.0239480325,-0
 .5039480325,-3.6612755629\C,0,4.5138751537,1.0061248463,-4.9235927708\
 C,0,6.5061250889,-0.9861250889,-4.9235926697\C,0,5.0036786493,0.516321
 3507,-6.096356521\C,0,6.0163216812,-0.4963216812,-6.0963564796\C,0,4.5
 155315689,1.0044684311,-2.4533174875\C,0,4.995511574,0.524488426,-1.21
 40288145\C,0,6.5044685359,-0.9844685359,-2.4533173917\C,0,6.0244885437
 ,-0.5044885437,-1.2140288362\H,0,3.7466440333,1.7733559667,-4.92326004
 59\H,0,3.7478133187,1.7721866813,-2.4539285815\H,0,7.2721859268,-1.752
 1859268,-2.4539284818\H,0,7.2733558421,-1.7533558421,-4.9232597785\H,0
 ,6.3905568758,-0.8705568758,-7.0425276922\H,0,4.6294434954,0.890556504
 6,-7.042527775\C,0,4.5151815039,1.0048184961,0.0099998782\C,0,4.995511
 6043,0.5244883957,1.2340295553\C,0,6.5048185643,-0.9848185643,0.009999
 8696\C,0,6.0244885146,-0.5044885146,1.2340295261\H,0,3.7475300303,1.77
 24699697,0.0099999205\H,0,7.272468921,-1.752468921,0.0099999641\C,0,4.
 5155316952,1.0044683048,2.4733171385\C,0,4.9960522886,0.5239477114,3.6
 81276331\C,0,6.5044684211,-0.9844684211,2.4733170835\C,0,6.0239479079,
 -0.5039479079,3.6812763217\H,0,3.7478134473,1.7721865527,2.4739285326\
 H,0,7.2721858092,-1.7521858092,2.4739283796\C,0,4.5138754823,1.0061245
 177,4.9435920588\C,0,5.0036790628,0.5163209372,6.116356633\C,0,6.50612
 47659,-0.9861247659,4.9435919377\C,0,6.0163212637,-0.4963212637,6.1163
 566075\H,0,3.7466443496,1.7733556504,4.9432601504\H,0,4.6294432574,0.8
 905567426,7.0625274368\H,0,6.3905570967,-0.8705570967,7.0625272142\H,0
 ,7.2733555414,-1.7533555414,4.9432599297\\Version=Fujitsu-Arm-G16RevC.
 01\State=1-A'\HF=-847.0198415\RMSD=3.181e-09\Dipole=-0.0000009,0.00000
 11,0.\Quadrupole=-8.6579023,-5.5609791,14.2188813,-17.615403,0.,0.\PG=
 CS [SG(C4H4),X(C40H24)]\\@


 CURIOUSER AND CURIOUSER

                  -- ALICE, IN WONDERLAND
 Job cpu time:       0 days  3 hours 22 minutes 49.2 seconds.
 Elapsed time:       0 days  0 hours  5 minutes 17.7 seconds.
 File lengths (MBytes):  RWF=    718 Int=      0 D2E=      0 Chk=    208 Scr=      1
 Normal termination of Gaussian 16 at Wed Sep 27 16:57:34 2023.
