 Entering Gaussian System, Link 0=g16
 Initial command:
 /home/center/opt/aarch64/apps/gaussian16/c01/g16/l1.exe "/data/tmp/Gtmp/1006986/Gau-50.inp" -scrdir="/data/tmp/Gtmp/1006986/"
 Entering Link 1 = /home/center/opt/aarch64/apps/gaussian16/c01/g16/l1.exe PID=        51.
  
 Copyright (c) 1988-2019, Gaussian, Inc.  All Rights Reserved.
  
 This is part of the Gaussian(R) 16 program.  It is based on
 the Gaussian(R) 09 system (copyright 2009, Gaussian, Inc.),
 the Gaussian(R) 03 system (copyright 2003, Gaussian, Inc.),
 the Gaussian(R) 98 system (copyright 1998, Gaussian, Inc.),
 the Gaussian(R) 94 system (copyright 1995, Gaussian, Inc.),
 the Gaussian 92(TM) system (copyright 1992, Gaussian, Inc.),
 the Gaussian 90(TM) system (copyright 1990, Gaussian, Inc.),
 the Gaussian 88(TM) system (copyright 1988, Gaussian, Inc.),
 the Gaussian 86(TM) system (copyright 1986, Carnegie Mellon
 University), and the Gaussian 82(TM) system (copyright 1983,
 Carnegie Mellon University). Gaussian is a federally registered
 trademark of Gaussian, Inc.
  
 This software contains proprietary and confidential information,
 including trade secrets, belonging to Gaussian, Inc.
  
 This software is provided under written license and may be
 used, copied, transmitted, or stored only in accord with that
 written license.
  
 The following legend is applicable only to US Government
 contracts under FAR:
  
                    RESTRICTED RIGHTS LEGEND
  
 Use, reproduction and disclosure by the US Government is
 subject to restrictions as set forth in subparagraphs (a)
 and (c) of the Commercial Computer Software - Restricted
 Rights clause in FAR 52.227-19.
  
 Gaussian, Inc.
 340 Quinnipiac St., Bldg. 40, Wallingford CT 06492
  
  
 ---------------------------------------------------------------
 Warning -- This program may not be used in any manner that
 competes with the business of Gaussian, Inc. or will provide
 assistance to any competitor of Gaussian, Inc.  The licensee
 of this program is prohibited from giving any competitor of
 Gaussian, Inc. access to this program.  By using this program,
 the user acknowledges that Gaussian, Inc. is engaged in the
 business of creating and licensing software in the field of
 computational chemistry and represents and warrants to the
 licensee that it is not a competitor of Gaussian, Inc. and that
 it will not use this program in any manner prohibited above.
 ---------------------------------------------------------------
  

 Cite this work as:
 Gaussian 16, Revision C.01,
 M. J. Frisch, G. W. Trucks, H. B. Schlegel, G. E. Scuseria, 
 M. A. Robb, J. R. Cheeseman, G. Scalmani, V. Barone, 
 G. A. Petersson, H. Nakatsuji, X. Li, M. Caricato, A. V. Marenich, 
 J. Bloino, B. G. Janesko, R. Gomperts, B. Mennucci, H. P. Hratchian, 
 J. V. Ortiz, A. F. Izmaylov, J. L. Sonnenberg, D. Williams-Young, 
 F. Ding, F. Lipparini, F. Egidi, J. Goings, B. Peng, A. Petrone, 
 T. Henderson, D. Ranasinghe, V. G. Zakrzewski, J. Gao, N. Rega, 
 G. Zheng, W. Liang, M. Hada, M. Ehara, K. Toyota, R. Fukuda, 
 J. Hasegawa, M. Ishida, T. Nakajima, Y. Honda, O. Kitao, H. Nakai, 
 T. Vreven, K. Throssell, J. A. Montgomery, Jr., J. E. Peralta, 
 F. Ogliaro, M. J. Bearpark, J. J. Heyd, E. N. Brothers, K. N. Kudin, 
 V. N. Staroverov, T. A. Keith, R. Kobayashi, J. Normand, 
 K. Raghavachari, A. P. Rendell, J. C. Burant, S. S. Iyengar, 
 J. Tomasi, M. Cossi, J. M. Millam, M. Klene, C. Adamo, R. Cammi, 
 J. W. Ochterski, R. L. Martin, K. Morokuma, O. Farkas, 
 J. B. Foresman, and D. J. Fox, Gaussian, Inc., Wallingford CT, 2019.
 
 ************************************************
 Gaussian 16:  Fujitsu-Arm-G16RevC.01  3-Jul-2019
                   27-Sep-2023 
 ************************************************
 %mem=24GB
 %nproc=42
 Will use up to   42 processors via shared memory.
 -------------------------------------------------------------
 #P TEST b3lyp/6-311G** EmpiricalDispersion=GD3 counterpoise=2
 -------------------------------------------------------------
 1/38=1,62=2,172=1/1;
 2/12=2,17=6,18=5,40=1/2;
 1/38=1,53=2,62=2,63=1/22;
 3/5=4,6=6,7=101,11=2,25=1,30=1,74=-5,124=31/1,2,3;
 4//1;
 5/5=2,38=5/2;
 6/7=2,8=2,9=2,10=2,28=1/1;
 1/53=2,62=2,63=1/22;
 3/5=7,6=11,7=101,11=2,25=1,30=1,74=-5,82=7,124=31/1,2,3;
 4//1;
 5/5=2,38=5/2;
 6/7=2,8=2,9=2,10=2,28=1/1;
 1/53=2,62=2,63=1/22(-4);
 99/5=1,9=1/99;
 Leave Link    1 at Wed Sep 27 16:57:31 2023, MaxMem=  3221225472 cpu:               5.9 elap:               0.2
 (Enter /home/center/opt/aarch64/apps/gaussian16/c01/g16/l101.exe)
 ----------------------------
 pentacene_A1=0_A2=0_A3=45_t1
 ----------------------------
 Symbolic Z-matrix:
 Charge =  0 Multiplicity = 1 in supermolecule
 Charge =  0 Multiplicity = 1 in fragment      1.
 Charge =  0 Multiplicity = 1 in fragment      2.
 C(Fragment=1)        -0.50395   0.52395  -3.66128 
 C(Fragment=1)         0.52395  -0.50395  -3.66128 
 C(Fragment=1)        -0.98612   1.00612  -4.92359 
 C(Fragment=1)         1.00613  -0.98613  -4.92359 
 C(Fragment=1)        -0.49632   0.51632  -6.09636 
 C(Fragment=1)         0.51632  -0.49632  -6.09636 
 C(Fragment=1)        -0.98447   1.00447  -2.45332 
 C(Fragment=1)        -0.50449   0.52449  -1.21403 
 C(Fragment=1)         1.00447  -0.98447  -2.45332 
 C(Fragment=1)         0.52449  -0.50449  -1.21403 
 H(Fragment=1)        -1.75336   1.77336  -4.92326 
 H(Fragment=1)        -1.75219   1.77219  -2.45393 
 H(Fragment=1)         1.77219  -1.75219  -2.45393 
 H(Fragment=1)         1.77336  -1.75336  -4.92326 
 H(Fragment=1)         0.89056  -0.87056  -7.04253 
 H(Fragment=1)        -0.87056   0.89056  -7.04253 
 C(Fragment=1)        -0.98482   1.00482   0.01 
 C(Fragment=1)        -0.50449   0.52449   1.23403 
 C(Fragment=1)         1.00482  -0.98482   0.01 
 C(Fragment=1)         0.52449  -0.50449   1.23403 
 H(Fragment=1)        -1.75247   1.77247   0.01 
 H(Fragment=1)         1.77247  -1.75247   0.01 
 C(Fragment=1)        -0.98447   1.00447   2.47332 
 C(Fragment=1)        -0.50395   0.52395   3.68128 
 C(Fragment=1)         1.00447  -0.98447   2.47332 
 C(Fragment=1)         0.52395  -0.50395   3.68128 
 H(Fragment=1)        -1.75219   1.77219   2.47393 
 H(Fragment=1)         1.77219  -1.75219   2.47393 
 C(Fragment=1)        -0.98612   1.00612   4.94359 
 C(Fragment=1)        -0.49632   0.51632   6.11636 
 C(Fragment=1)         1.00612  -0.98612   4.94359 
 C(Fragment=1)         0.51632  -0.49632   6.11636 
 H(Fragment=1)        -1.75336   1.77336   4.94326 
 H(Fragment=1)        -0.87056   0.89056   7.06253 
 H(Fragment=1)         0.89056  -0.87056   7.06253 
 H(Fragment=1)         1.77336  -1.75336   4.94326 
 C(Fragment=2)         5.02395   2.77395  -3.66128 
 C(Fragment=2)         3.99605   1.74605  -3.66128 
 C(Fragment=2)         5.50612   3.25612  -4.92359 
 C(Fragment=2)         3.51387   1.26387  -4.92359 
 C(Fragment=2)         5.01632   2.76632  -6.09636 
 C(Fragment=2)         4.00368   1.75368  -6.09636 
 C(Fragment=2)         5.50447   3.25447  -2.45332 
 C(Fragment=2)         5.02449   2.77449  -1.21403 
 C(Fragment=2)         3.51553   1.26553  -2.45332 
 C(Fragment=2)         3.99551   1.74551  -1.21403 
 H(Fragment=2)         6.27336   4.02336  -4.92326 
 H(Fragment=2)         6.27219   4.02219  -2.45393 
 H(Fragment=2)         2.74781   0.49781  -2.45393 
 H(Fragment=2)         2.74664   0.49664  -4.92326 
 H(Fragment=2)         3.62944   1.37944  -7.04253 
 H(Fragment=2)         5.39056   3.14056  -7.04253 
 C(Fragment=2)         5.50482   3.25482   0.01 
 C(Fragment=2)         5.02449   2.77449   1.23403 
 C(Fragment=2)         3.51518   1.26518   0.01 
 C(Fragment=2)         3.99551   1.74551   1.23403 
 H(Fragment=2)         6.27247   4.02247   0.01 
 H(Fragment=2)         2.74753   0.49753   0.01 
 C(Fragment=2)         5.50447   3.25447   2.47332 
 C(Fragment=2)         5.02395   2.77395   3.68128 
 C(Fragment=2)         3.51553   1.26553   2.47332 
 C(Fragment=2)         3.99605   1.74605   3.68128 
 H(Fragment=2)         6.27219   4.02219   2.47393 
 H(Fragment=2)         2.74781   0.49781   2.47393 
 C(Fragment=2)         5.50612   3.25612   4.94359 
 C(Fragment=2)         5.01632   2.76632   6.11636 
 C(Fragment=2)         3.51388   1.26388   4.94359 
 C(Fragment=2)         4.00368   1.75368   6.11636 
 H(Fragment=2)         6.27336   4.02336   4.94326 
 H(Fragment=2)         5.39056   3.14056   7.06253 
 H(Fragment=2)         3.62944   1.37944   7.06253 
 H(Fragment=2)         2.74664   0.49664   4.94326 
 
 ITRead=  0  0  0  0  0  0  0  0  0  0  0  0  0  0  0  0  0  0  0  0
 ITRead=  0  0  0  0  0  0  0  0  0  0  0  0  0  0  0  0  0  0  0  0
 ITRead=  0  0  0  0  0  0  0  0  0  0  0  0  0  0  0  0  0  0  0  0
 ITRead=  0  0  0  0  0  0  0  0  0  0  0  0
 MicOpt= -1 -1 -1 -1 -1 -1 -1 -1 -1 -1 -1 -1 -1 -1 -1 -1 -1 -1 -1 -1
 MicOpt= -1 -1 -1 -1 -1 -1 -1 -1 -1 -1 -1 -1 -1 -1 -1 -1 -1 -1 -1 -1
 MicOpt= -1 -1 -1 -1 -1 -1 -1 -1 -1 -1 -1 -1 -1 -1 -1 -1 -1 -1 -1 -1
 MicOpt= -1 -1 -1 -1 -1 -1 -1 -1 -1 -1 -1 -1
 NAtoms=     72 NQM=       72 NQMF=       0 NMMI=      0 NMMIF=      0
                NMic=       0 NMicF=      0.
                    Isotopes and Nuclear Properties:
 (Nuclear quadrupole moments (NQMom) in fm**2, nuclear magnetic moments (NMagM)
  in nuclear magnetons)

  Atom         1           2           3           4           5           6           7           8           9          10
 IAtWgt=          12          12          12          12          12          12          12          12          12          12
 AtmWgt=  12.0000000  12.0000000  12.0000000  12.0000000  12.0000000  12.0000000  12.0000000  12.0000000  12.0000000  12.0000000
 NucSpn=           0           0           0           0           0           0           0           0           0           0
 AtZEff=   0.0000000   0.0000000   0.0000000   0.0000000   0.0000000   0.0000000   0.0000000   0.0000000   0.0000000   0.0000000
 NQMom=    0.0000000   0.0000000   0.0000000   0.0000000   0.0000000   0.0000000   0.0000000   0.0000000   0.0000000   0.0000000
 NMagM=    0.0000000   0.0000000   0.0000000   0.0000000   0.0000000   0.0000000   0.0000000   0.0000000   0.0000000   0.0000000
 AtZNuc=   6.0000000   6.0000000   6.0000000   6.0000000   6.0000000   6.0000000   6.0000000   6.0000000   6.0000000   6.0000000

  Atom        11          12          13          14          15          16          17          18          19          20
 IAtWgt=           1           1           1           1           1           1          12          12          12          12
 AtmWgt=   1.0078250   1.0078250   1.0078250   1.0078250   1.0078250   1.0078250  12.0000000  12.0000000  12.0000000  12.0000000
 NucSpn=           1           1           1           1           1           1           0           0           0           0
 AtZEff=   0.0000000   0.0000000   0.0000000   0.0000000   0.0000000   0.0000000   0.0000000   0.0000000   0.0000000   0.0000000
 NQMom=    0.0000000   0.0000000   0.0000000   0.0000000   0.0000000   0.0000000   0.0000000   0.0000000   0.0000000   0.0000000
 NMagM=    2.7928460   2.7928460   2.7928460   2.7928460   2.7928460   2.7928460   0.0000000   0.0000000   0.0000000   0.0000000
 AtZNuc=   1.0000000   1.0000000   1.0000000   1.0000000   1.0000000   1.0000000   6.0000000   6.0000000   6.0000000   6.0000000

  Atom        21          22          23          24          25          26          27          28          29          30
 IAtWgt=           1           1          12          12          12          12           1           1          12          12
 AtmWgt=   1.0078250   1.0078250  12.0000000  12.0000000  12.0000000  12.0000000   1.0078250   1.0078250  12.0000000  12.0000000
 NucSpn=           1           1           0           0           0           0           1           1           0           0
 AtZEff=   0.0000000   0.0000000   0.0000000   0.0000000   0.0000000   0.0000000   0.0000000   0.0000000   0.0000000   0.0000000
 NQMom=    0.0000000   0.0000000   0.0000000   0.0000000   0.0000000   0.0000000   0.0000000   0.0000000   0.0000000   0.0000000
 NMagM=    2.7928460   2.7928460   0.0000000   0.0000000   0.0000000   0.0000000   2.7928460   2.7928460   0.0000000   0.0000000
 AtZNuc=   1.0000000   1.0000000   6.0000000   6.0000000   6.0000000   6.0000000   1.0000000   1.0000000   6.0000000   6.0000000

  Atom        31          32          33          34          35          36          37          38          39          40
 IAtWgt=          12          12           1           1           1           1          12          12          12          12
 AtmWgt=  12.0000000  12.0000000   1.0078250   1.0078250   1.0078250   1.0078250  12.0000000  12.0000000  12.0000000  12.0000000
 NucSpn=           0           0           1           1           1           1           0           0           0           0
 AtZEff=   0.0000000   0.0000000   0.0000000   0.0000000   0.0000000   0.0000000   0.0000000   0.0000000   0.0000000   0.0000000
 NQMom=    0.0000000   0.0000000   0.0000000   0.0000000   0.0000000   0.0000000   0.0000000   0.0000000   0.0000000   0.0000000
 NMagM=    0.0000000   0.0000000   2.7928460   2.7928460   2.7928460   2.7928460   0.0000000   0.0000000   0.0000000   0.0000000
 AtZNuc=   6.0000000   6.0000000   1.0000000   1.0000000   1.0000000   1.0000000   6.0000000   6.0000000   6.0000000   6.0000000

  Atom        41          42          43          44          45          46          47          48          49          50
 IAtWgt=          12          12          12          12          12          12           1           1           1           1
 AtmWgt=  12.0000000  12.0000000  12.0000000  12.0000000  12.0000000  12.0000000   1.0078250   1.0078250   1.0078250   1.0078250
 NucSpn=           0           0           0           0           0           0           1           1           1           1
 AtZEff=   0.0000000   0.0000000   0.0000000   0.0000000   0.0000000   0.0000000   0.0000000   0.0000000   0.0000000   0.0000000
 NQMom=    0.0000000   0.0000000   0.0000000   0.0000000   0.0000000   0.0000000   0.0000000   0.0000000   0.0000000   0.0000000
 NMagM=    0.0000000   0.0000000   0.0000000   0.0000000   0.0000000   0.0000000   2.7928460   2.7928460   2.7928460   2.7928460
 AtZNuc=   6.0000000   6.0000000   6.0000000   6.0000000   6.0000000   6.0000000   1.0000000   1.0000000   1.0000000   1.0000000

  Atom        51          52          53          54          55          56          57          58          59          60
 IAtWgt=           1           1          12          12          12          12           1           1          12          12
 AtmWgt=   1.0078250   1.0078250  12.0000000  12.0000000  12.0000000  12.0000000   1.0078250   1.0078250  12.0000000  12.0000000
 NucSpn=           1           1           0           0           0           0           1           1           0           0
 AtZEff=   0.0000000   0.0000000   0.0000000   0.0000000   0.0000000   0.0000000   0.0000000   0.0000000   0.0000000   0.0000000
 NQMom=    0.0000000   0.0000000   0.0000000   0.0000000   0.0000000   0.0000000   0.0000000   0.0000000   0.0000000   0.0000000
 NMagM=    2.7928460   2.7928460   0.0000000   0.0000000   0.0000000   0.0000000   2.7928460   2.7928460   0.0000000   0.0000000
 AtZNuc=   1.0000000   1.0000000   6.0000000   6.0000000   6.0000000   6.0000000   1.0000000   1.0000000   6.0000000   6.0000000

  Atom        61          62          63          64          65          66          67          68          69          70
 IAtWgt=          12          12           1           1          12          12          12          12           1           1
 AtmWgt=  12.0000000  12.0000000   1.0078250   1.0078250  12.0000000  12.0000000  12.0000000  12.0000000   1.0078250   1.0078250
 NucSpn=           0           0           1           1           0           0           0           0           1           1
 AtZEff=   0.0000000   0.0000000   0.0000000   0.0000000   0.0000000   0.0000000   0.0000000   0.0000000   0.0000000   0.0000000
 NQMom=    0.0000000   0.0000000   0.0000000   0.0000000   0.0000000   0.0000000   0.0000000   0.0000000   0.0000000   0.0000000
 NMagM=    0.0000000   0.0000000   2.7928460   2.7928460   0.0000000   0.0000000   0.0000000   0.0000000   2.7928460   2.7928460
 AtZNuc=   6.0000000   6.0000000   1.0000000   1.0000000   6.0000000   6.0000000   6.0000000   6.0000000   1.0000000   1.0000000

  Atom        71          72
 IAtWgt=           1           1
 AtmWgt=   1.0078250   1.0078250
 NucSpn=           1           1
 AtZEff=   0.0000000   0.0000000
 NQMom=    0.0000000   0.0000000
 NMagM=    2.7928460   2.7928460
 AtZNuc=   1.0000000   1.0000000
 Leave Link  101 at Wed Sep 27 16:57:33 2023, MaxMem=  3221225472 cpu:               2.5 elap:               0.1
 (Enter /home/center/opt/aarch64/apps/gaussian16/c01/g16/l202.exe)
 Stoichiometry    C44H28
 Framework group  CS[SG(C4H4),X(C40H24)]
 Deg. of freedom   109
 Full point group                 CS      NOp   2
 Largest Abelian subgroup         CS      NOp   2
 Largest concise Abelian subgroup CS      NOp   2
                         Standard orientation:                         
 ---------------------------------------------------------------------
 Center     Atomic      Atomic             Coordinates (Angstroms)
 Number     Number       Type             X           Y           Z
 ---------------------------------------------------------------------
      1          6           0        1.522327   -2.386485    3.671276
      2          6           0        0.068663   -2.386485    3.671276
      3          6           0        2.204228   -2.386485    4.933593
      4          6           0       -0.613238   -2.386485    4.933593
      5          6           0        1.511542   -2.386485    6.106357
      6          6           0        0.079448   -2.386485    6.106357
      7          6           0        2.201886   -2.386485    2.463318
      8          6           0        1.523092   -2.386485    1.224029
      9          6           0       -0.610896   -2.386485    2.463317
     10          6           0        0.067899   -2.386485    1.224029
     11          1           0        3.289257   -2.386485    4.933260
     12          1           0        3.287603   -2.386485    2.463929
     13          1           0       -1.696612   -2.386485    2.463929
     14          1           0       -1.698267   -2.386485    4.933260
     15          1           0       -0.449800   -2.386485    7.052528
     16          1           0        2.040790   -2.386485    7.052528
     17          6           0        2.202381   -2.386485    0.000000
     18          6           0        1.523092   -2.386485   -1.224029
     19          6           0       -0.611391   -2.386485    0.000000
     20          6           0        0.067899   -2.386485   -1.224029
     21          1           0        3.288004   -2.386485    0.000000
     22          1           0       -1.697012   -2.386485    0.000000
     23          6           0        2.201886   -2.386485   -2.463318
     24          6           0        1.522327   -2.386485   -3.671276
     25          6           0       -0.610896   -2.386485   -2.463317
     26          6           0        0.068663   -2.386485   -3.671276
     27          1           0        3.287603   -2.386485   -2.463929
     28          1           0       -1.696612   -2.386485   -2.463929
     29          6           0        2.204228   -2.386485   -4.933593
     30          6           0        1.511542   -2.386485   -6.106357
     31          6           0       -0.613238   -2.386485   -4.933593
     32          6           0        0.079448   -2.386485   -6.106357
     33          1           0        3.289257   -2.386485   -4.933260
     34          1           0        2.040790   -2.386485   -7.052528
     35          1           0       -0.449800   -2.386485   -7.052528
     36          1           0       -1.698267   -2.386485   -4.933260
     37          6           0       -0.795495    3.113317    3.671276
     38          6           0       -0.795495    1.659653    3.671276
     39          6           0       -0.795495    3.795219    4.933593
     40          6           0       -0.795495    0.977752    4.933593
     41          6           0       -0.795495    3.102532    6.106357
     42          6           0       -0.795495    1.670438    6.106357
     43          6           0       -0.795495    3.792876    2.463318
     44          6           0       -0.795495    3.114082    1.224029
     45          6           0       -0.795495    0.980095    2.463317
     46          6           0       -0.795495    1.658889    1.224029
     47          1           0       -0.795495    4.880247    4.933260
     48          1           0       -0.795495    4.878594    2.463929
     49          1           0       -0.795495   -0.105622    2.463929
     50          1           0       -0.795495   -0.107276    4.933260
     51          1           0       -0.795495    1.141190    7.052528
     52          1           0       -0.795495    3.631780    7.052528
     53          6           0       -0.795495    3.793371    0.000000
     54          6           0       -0.795495    3.114082   -1.224029
     55          6           0       -0.795495    0.979600    0.000000
     56          6           0       -0.795495    1.658889   -1.224029
     57          1           0       -0.795495    4.878994    0.000000
     58          1           0       -0.795495   -0.106022    0.000000
     59          6           0       -0.795495    3.792876   -2.463318
     60          6           0       -0.795495    3.113317   -3.671276
     61          6           0       -0.795495    0.980095   -2.463317
     62          6           0       -0.795495    1.659653   -3.671276
     63          1           0       -0.795495    4.878594   -2.463929
     64          1           0       -0.795495   -0.105622   -2.463929
     65          6           0       -0.795495    3.795219   -4.933593
     66          6           0       -0.795495    3.102532   -6.106357
     67          6           0       -0.795495    0.977752   -4.933593
     68          6           0       -0.795495    1.670438   -6.106357
     69          1           0       -0.795495    4.880247   -4.933260
     70          1           0       -0.795495    3.631780   -7.052528
     71          1           0       -0.795495    1.141190   -7.052528
     72          1           0       -0.795495   -0.107276   -4.933260
 ---------------------------------------------------------------------
 Rotational constants (GHZ):           0.1179759           0.0563744           0.0404805
 Leave Link  202 at Wed Sep 27 16:57:36 2023, MaxMem=  3221225472 cpu:               0.6 elap:               0.0
 (Enter /home/center/opt/aarch64/apps/gaussian16/c01/g16/l122.exe)
 Counterpoise: doing full-system calculation.
 Leave Link  122 at Wed Sep 27 16:57:38 2023, MaxMem=  3221225472 cpu:               1.3 elap:               0.1
 (Enter /home/center/opt/aarch64/apps/gaussian16/c01/g16/l301.exe)
 Standard basis: 6-311G(d,p) (5D, 7F)
 Ernie: Thresh=  0.10000D-02 Tol=  0.10000D-05 Strict=F.
 There are   528 symmetry adapted cartesian basis functions of A'  symmetry.
 There are   476 symmetry adapted cartesian basis functions of A"  symmetry.
 There are   504 symmetry adapted basis functions of A'  symmetry.
 There are   456 symmetry adapted basis functions of A"  symmetry.
   960 basis functions,  1632 primitive gaussians,  1004 cartesian basis functions
   146 alpha electrons      146 beta electrons
       nuclear repulsion energy      4692.4500793318 Hartrees.
 IExCor=  402 DFT=T Ex+Corr=B3LYP ExCW=0 ScaHFX=  0.200000
 ScaDFX=  0.800000  0.720000  1.000000  0.810000 ScalE2=  1.000000  1.000000
 IRadAn=      5 IRanWt=     -1 IRanGd=            0 ICorTp=0 IEmpDi=131
 NAtoms=   72 NActive=   72 NUniq=   40 SFac= 3.24D+00 NAtFMM=   60 NAOKFM=T Big=F
 Integral buffers will be    131072 words long.
 Raffenetti 2 integral format.
 Two-electron integral symmetry is turned on.
 R6Disp:  Grimme-D3 Dispersion energy=       -0.0865969705 Hartrees.
 Nuclear repulsion after empirical dispersion term =     4692.3634823613 Hartrees.
 Leave Link  301 at Wed Sep 27 16:57:40 2023, MaxMem=  3221225472 cpu:               2.0 elap:               0.1
 (Enter /home/center/opt/aarch64/apps/gaussian16/c01/g16/l302.exe)
 NPDir=0 NMtPBC=     1 NCelOv=     1 NCel=       1 NClECP=     1 NCelD=      1
         NCelK=      1 NCelE2=     1 NClLst=     1 CellRange=     0.0.
 One-electron integrals computed using PRISM.
 One-electron integral symmetry used in STVInt
 NBasis=   960 RedAO= T EigKep=  3.60D-05  NBF=   504   456
 NBsUse=   960 1.00D-06 EigRej= -1.00D+00 NBFU=   504   456
 Precomputing XC quadrature grid using
 IXCGrd= 4 IRadAn=           5 IRanWt=          -1 IRanGd=           0 AccXCQ= 0.00D+00.
 Generated NRdTot=       0 NPtTot=           0 NUsed=           0 NTot=          32
 NSgBfM=   991   991   991   991   991 MxSgAt=    72 MxSgA2=    72.
 Leave Link  302 at Wed Sep 27 16:57:45 2023, MaxMem=  3221225472 cpu:              68.9 elap:               2.1
 (Enter /home/center/opt/aarch64/apps/gaussian16/c01/g16/l303.exe)
 DipDrv:  MaxL=1.
 Leave Link  303 at Wed Sep 27 16:57:47 2023, MaxMem=  3221225472 cpu:              14.1 elap:               0.4
 (Enter /home/center/opt/aarch64/apps/gaussian16/c01/g16/l401.exe)
 ExpMin= 1.03D-01 ExpMax= 4.56D+03 ExpMxC= 6.82D+02 IAcc=3 IRadAn=         5 AccDes= 0.00D+00
 Harris functional with IExCor=  402 and IRadAn=       5 diagonalized for initial guess.
 HarFok:  IExCor=  402 AccDes= 0.00D+00 IRadAn=         5 IDoV= 1 UseB2=F ITyADJ=14
 ICtDFT=  3500011 ScaDFX=  1.000000  1.000000  1.000000  1.000000
 FoFCou: FMM=F IPFlag=           0 FMFlag=      100000 FMFlg1=        2000
         NFxFlg=           0 DoJE=T BraDBF=F KetDBF=T FulRan=T
         wScrn=  0.000000 ICntrl=       500 IOpCl=  0 I1Cent=   200000004 NGrid=           0
         NMat0=    1 NMatS0=      1 NMatT0=    0 NMatD0=    1 NMtDS0=    0 NMtDT0=    0
 Petite list used in FoFCou.
 Harris En= -1694.12772970326    
 JPrj=0 DoOrth=F DoCkMO=F.
 Initial guess orbital symmetries:
       Occupied  (A") (A') (A") (A') (A") (A') (A') (A") (A") (A')
                 (A") (A') (A") (A') (A") (A') (A") (A') (A') (A")
                 (A') (A") (A') (A") (A') (A') (A') (A') (A") (A')
                 (A") (A') (A") (A') (A") (A') (A") (A') (A") (A')
                 (A") (A') (A') (A") (A') (A') (A") (A") (A') (A')
                 (A") (A") (A') (A') (A') (A') (A") (A") (A') (A')
                 (A") (A") (A") (A") (A') (A') (A') (A') (A") (A")
                 (A") (A") (A') (A') (A") (A') (A") (A') (A') (A')
                 (A') (A') (A") (A") (A") (A") (A') (A") (A") (A')
                 (A') (A') (A") (A") (A') (A') (A') (A") (A') (A")
                 (A') (A') (A") (A") (A") (A") (A') (A') (A') (A")
                 (A') (A") (A') (A') (A") (A") (A') (A") (A') (A")
                 (A') (A") (A") (A') (A') (A') (A") (A") (A') (A')
                 (A") (A") (A') (A') (A") (A") (A') (A') (A') (A')
                 (A") (A") (A") (A") (A') (A')
       Virtual   (A') (A') (A") (A") (A") (A") (A') (A') (A') (A')
                 (A") (A") (A') (A') (A") (A") (A') (A") (A') (A')
                 (A') (A') (A") (A') (A") (A') (A") (A") (A') (A')
                 (A") (A") (A') (A") (A") (A') (A") (A') (A') (A')
                 (A") (A") (A') (A') (A") (A') (A") (A') (A') (A')
                 (A') (A") (A') (A") (A') (A') (A") (A') (A") (A")
                 (A') (A") (A") (A") (A') (A') (A") (A") (A") (A')
                 (A') (A") (A') (A') (A") (A') (A") (A") (A') (A")
                 (A') (A') (A") (A') (A") (A') (A') (A') (A") (A')
                 (A') (A") (A") (A") (A') (A") (A') (A") (A') (A')
                 (A") (A') (A") (A') (A") (A') (A") (A') (A') (A")
                 (A') (A") (A') (A") (A') (A') (A") (A') (A') (A")
                 (A') (A") (A") (A') (A') (A") (A") (A") (A') (A')
                 (A") (A") (A') (A") (A') (A") (A') (A') (A") (A')
                 (A") (A') (A") (A') (A") (A') (A') (A') (A") (A')
                 (A') (A") (A') (A") (A") (A') (A") (A") (A') (A")
                 (A') (A') (A") (A') (A") (A') (A") (A') (A") (A')
                 (A') (A') (A") (A") (A') (A") (A") (A') (A') (A")
                 (A') (A") (A') (A') (A") (A') (A") (A') (A') (A")
                 (A") (A') (A") (A') (A') (A") (A") (A') (A') (A")
                 (A') (A") (A") (A') (A') (A") (A') (A') (A") (A")
                 (A') (A') (A") (A") (A') (A") (A") (A') (A") (A')
                 (A') (A") (A') (A") (A") (A') (A') (A") (A") (A')
                 (A') (A') (A') (A") (A') (A") (A') (A") (A') (A")
                 (A") (A') (A") (A') (A") (A') (A") (A') (A") (A')
                 (A") (A') (A") (A') (A") (A') (A') (A") (A') (A")
                 (A') (A") (A') (A") (A') (A") (A") (A') (A') (A")
                 (A") (A") (A') (A") (A') (A') (A") (A') (A") (A')
                 (A") (A") (A') (A') (A') (A") (A') (A') (A") (A")
                 (A') (A") (A') (A") (A") (A') (A") (A') (A") (A")
                 (A') (A") (A') (A') (A') (A") (A') (A") (A') (A")
                 (A') (A') (A") (A") (A") (A") (A') (A') (A') (A')
                 (A') (A") (A") (A') (A') (A") (A') (A") (A") (A')
                 (A") (A") (A') (A") (A') (A') (A") (A") (A') (A')
                 (A") (A') (A') (A") (A') (A") (A') (A") (A') (A")
                 (A') (A') (A") (A') (A') (A") (A') (A") (A') (A')
                 (A") (A') (A') (A") (A") (A") (A') (A") (A") (A")
                 (A") (A') (A') (A") (A") (A') (A") (A') (A') (A')
                 (A") (A') (A') (A') (A') (A") (A") (A') (A") (A')
                 (A') (A") (A') (A") (A") (A') (A") (A") (A') (A')
                 (A") (A') (A') (A") (A") (A') (A') (A") (A") (A')
                 (A") (A') (A') (A') (A') (A") (A') (A") (A') (A")
                 (A') (A') (A') (A") (A") (A") (A') (A') (A") (A')
                 (A") (A") (A") (A") (A") (A') (A') (A") (A') (A")
                 (A') (A") (A') (A') (A") (A") (A') (A') (A") (A")
                 (A') (A') (A") (A") (A') (A') (A") (A') (A') (A")
                 (A') (A") (A") (A') (A") (A") (A') (A") (A') (A')
                 (A") (A') (A") (A') (A") (A') (A") (A') (A') (A')
                 (A") (A") (A") (A') (A') (A") (A") (A") (A') (A')
                 (A") (A") (A") (A') (A") (A") (A') (A") (A') (A')
                 (A") (A') (A") (A') (A') (A") (A') (A') (A") (A")
                 (A') (A') (A') (A") (A") (A') (A") (A') (A") (A')
                 (A") (A") (A') (A') (A") (A') (A') (A") (A") (A')
                 (A') (A") (A") (A') (A") (A") (A') (A") (A') (A')
                 (A") (A") (A') (A') (A') (A") (A") (A") (A') (A")
                 (A") (A') (A') (A') (A") (A') (A") (A") (A') (A')
                 (A") (A") (A') (A') (A') (A') (A") (A") (A') (A")
                 (A') (A") (A") (A') (A") (A') (A") (A') (A") (A')
                 (A') (A') (A") (A") (A') (A') (A") (A') (A") (A')
                 (A') (A") (A') (A") (A') (A') (A") (A') (A") (A')
                 (A') (A") (A') (A") (A") (A') (A") (A") (A') (A')
                 (A') (A") (A') (A") (A") (A') (A") (A") (A') (A")
                 (A') (A") (A') (A') (A") (A') (A') (A") (A') (A')
                 (A') (A") (A') (A") (A") (A") (A') (A") (A") (A')
                 (A") (A") (A') (A') (A') (A') (A") (A') (A') (A")
                 (A') (A") (A') (A') (A") (A") (A') (A") (A') (A')
                 (A') (A") (A") (A") (A') (A') (A") (A') (A") (A')
                 (A") (A") (A') (A') (A") (A') (A") (A") (A') (A')
                 (A") (A') (A') (A") (A') (A") (A") (A') (A") (A")
                 (A') (A') (A") (A') (A") (A') (A') (A") (A') (A")
                 (A") (A') (A') (A") (A') (A") (A') (A") (A') (A")
                 (A") (A') (A") (A") (A') (A') (A') (A") (A') (A")
                 (A') (A") (A') (A') (A") (A") (A') (A') (A") (A')
                 (A") (A') (A') (A") (A") (A') (A') (A") (A') (A")
                 (A') (A") (A') (A") (A') (A') (A") (A') (A') (A')
                 (A") (A') (A") (A") (A") (A') (A') (A') (A") (A")
                 (A") (A') (A") (A') (A") (A") (A') (A") (A') (A")
                 (A') (A') (A") (A") (A') (A') (A') (A') (A") (A")
                 (A") (A") (A') (A') (A") (A') (A") (A') (A') (A')
                 (A") (A") (A") (A") (A') (A') (A') (A') (A") (A")
                 (A') (A') (A") (A") (A') (A") (A') (A') (A") (A')
                 (A') (A") (A') (A")
 The electronic state of the initial guess is 1-A'.
 Leave Link  401 at Wed Sep 27 16:57:52 2023, MaxMem=  3221225472 cpu:             108.1 elap:               2.7
 (Enter /home/center/opt/aarch64/apps/gaussian16/c01/g16/l502.exe)
 Integral symmetry usage will be decided dynamically.
 Closed shell SCF:
 Using DIIS extrapolation, IDIIS=  1040.
 NGot=  3221225472 LenX=  3219153746 LenY=  3218144726
 Requested convergence on RMS density matrix=1.00D-08 within 128 cycles.
 Requested convergence on MAX density matrix=1.00D-06.
 Requested convergence on             energy=1.00D-06.
 No special actions if energy rises.
 Fock matrices will be formed incrementally for  20 cycles.
 Integral accuracy reduced to 1.0D-05 until final iterations.

 Cycle   1  Pass 0  IDiag  1:
 FoFJK:  IHMeth= 1 ICntrl=       0 DoSepK=F KAlg= 0 I1Cent=           0 FoldK=F
 IRaf= 560000000 NMat=       1 IRICut=       1 DoRegI=T DoRafI=F ISym2E= 1 IDoP0=0 IntGTp=1.
 FoFCou: FMM=F IPFlag=           0 FMFlag=      100000 FMFlg1=        2000
         NFxFlg=           0 DoJE=F BraDBF=F KetDBF=F FulRan=T
         wScrn=  0.000000 ICntrl=         0 IOpCl=  0 I1Cent=           0 NGrid=           0
         NMat0=    1 NMatS0=      1 NMatT0=    0 NMatD0=    1 NMtDS0=    0 NMtDT0=    0
 Petite list used in FoFCou.
 E= -1693.16934348396    
 DIIS: error= 4.50D-02 at cycle   1 NSaved=   1.
 NSaved= 1 IEnMin= 1 EnMin= -1693.16934348396     IErMin= 1 ErrMin= 4.50D-02
 ErrMax= 4.50D-02  0.00D+00 EMaxC= 1.00D-01 BMatC= 8.96D-01 BMatP= 8.96D-01
 IDIUse=3 WtCom= 5.50D-01 WtEn= 4.50D-01
 Coeff-Com:  0.100D+01
 Coeff-En:   0.100D+01
 Coeff:      0.100D+01
 Gap=     0.053 Goal=   None    Shift=    0.000
 GapD=    0.053 DampG=0.500 DampE=0.500 DampFc=0.2500 IDamp=-1.
 Damping current iteration by 2.50D-01
 RMSDP=1.73D-03 MaxDP=8.41D-02              OVMax= 1.55D-01

 Cycle   2  Pass 0  IDiag  1:
 RMSU=  4.18D-04    CP:  9.82D-01
 E= -1693.47572446188     Delta-E=       -0.306380977919 Rises=F Damp=T
 DIIS: error= 2.68D-02 at cycle   2 NSaved=   2.
 NSaved= 2 IEnMin= 2 EnMin= -1693.47572446188     IErMin= 2 ErrMin= 2.68D-02
 ErrMax= 2.68D-02  0.00D+00 EMaxC= 1.00D-01 BMatC= 2.99D-01 BMatP= 8.96D-01
 IDIUse=3 WtCom= 7.32D-01 WtEn= 2.68D-01
 Coeff-Com: -0.122D+01 0.222D+01
 Coeff-En:   0.000D+00 0.100D+01
 Coeff:     -0.890D+00 0.189D+01
 Gap=     0.058 Goal=   None    Shift=    0.000
 RMSDP=7.39D-04 MaxDP=3.41D-02 DE=-3.06D-01 OVMax= 1.15D-01

 Cycle   3  Pass 0  IDiag  1:
 RMSU=  4.94D-04    CP:  9.55D-01  2.26D+00
 E= -1694.03640234275     Delta-E=       -0.560677880864 Rises=F Damp=F
 DIIS: error= 6.52D-03 at cycle   3 NSaved=   3.
 NSaved= 3 IEnMin= 3 EnMin= -1694.03640234275     IErMin= 3 ErrMin= 6.52D-03
 ErrMax= 6.52D-03  0.00D+00 EMaxC= 1.00D-01 BMatC= 1.26D-02 BMatP= 2.99D-01
 IDIUse=3 WtCom= 9.35D-01 WtEn= 6.52D-02
 Coeff-Com: -0.262D+00 0.536D+00 0.725D+00
 Coeff-En:   0.000D+00 0.000D+00 0.100D+01
 Coeff:     -0.244D+00 0.501D+00 0.743D+00
 Gap=     0.065 Goal=   None    Shift=    0.000
 RMSDP=2.59D-04 MaxDP=1.64D-02 DE=-5.61D-01 OVMax= 1.31D-01

 Cycle   4  Pass 0  IDiag  1:
 RMSU=  2.15D-04    CP:  9.57D-01  2.16D+00  7.16D-01
 E= -1694.03043382889     Delta-E=        0.005968513854 Rises=F Damp=F
 DIIS: error= 1.13D-02 at cycle   4 NSaved=   4.
 NSaved= 4 IEnMin= 3 EnMin= -1694.03640234275     IErMin= 3 ErrMin= 6.52D-03
 ErrMax= 1.13D-02  0.00D+00 EMaxC= 1.00D-01 BMatC= 1.60D-02 BMatP= 1.26D-02
 IDIUse=2 WtCom= 0.00D+00 WtEn= 1.00D+00
 Coeff-En:   0.000D+00 0.000D+00 0.575D+00 0.425D+00
 Coeff:      0.000D+00 0.000D+00 0.575D+00 0.425D+00
 Gap=     0.060 Goal=   None    Shift=    0.000
 RMSDP=1.55D-04 MaxDP=1.16D-02 DE= 5.97D-03 OVMax= 1.08D-01

 Cycle   5  Pass 0  IDiag  1:
 RMSU=  8.09D-05    CP:  9.57D-01  2.15D+00  7.87D-01  4.06D-01
 E= -1694.04843863125     Delta-E=       -0.018004802354 Rises=F Damp=F
 DIIS: error= 3.45D-03 at cycle   5 NSaved=   5.
 NSaved= 5 IEnMin= 5 EnMin= -1694.04843863125     IErMin= 5 ErrMin= 3.45D-03
 ErrMax= 3.45D-03  0.00D+00 EMaxC= 1.00D-01 BMatC= 1.25D-03 BMatP= 1.26D-02
 IDIUse=3 WtCom= 9.66D-01 WtEn= 3.45D-02
 Coeff-Com: -0.179D-01 0.386D-01 0.264D+00 0.240D+00 0.475D+00
 Coeff-En:   0.000D+00 0.000D+00 0.000D+00 0.191D-01 0.981D+00
 Coeff:     -0.173D-01 0.373D-01 0.255D+00 0.233D+00 0.492D+00
 Gap=     0.061 Goal=   None    Shift=    0.000
 RMSDP=5.31D-05 MaxDP=3.95D-03 DE=-1.80D-02 OVMax= 3.62D-02

 Cycle   6  Pass 0  IDiag  1:
 RMSU=  2.97D-05    CP:  9.56D-01  2.17D+00  8.01D-01  4.88D-01  5.23D-01
 E= -1694.04943578364     Delta-E=       -0.000997152395 Rises=F Damp=F
 DIIS: error= 1.84D-03 at cycle   6 NSaved=   6.
 NSaved= 6 IEnMin= 6 EnMin= -1694.04943578364     IErMin= 6 ErrMin= 1.84D-03
 ErrMax= 1.84D-03  0.00D+00 EMaxC= 1.00D-01 BMatC= 3.39D-04 BMatP= 1.25D-03
 IDIUse=3 WtCom= 9.82D-01 WtEn= 1.84D-02
 Coeff-Com: -0.663D-02 0.103D-01 0.113D+00 0.113D+00 0.367D+00 0.403D+00
 Coeff-En:   0.000D+00 0.000D+00 0.000D+00 0.000D+00 0.250D+00 0.750D+00
 Coeff:     -0.651D-02 0.101D-01 0.111D+00 0.111D+00 0.365D+00 0.409D+00
 Gap=     0.061 Goal=   None    Shift=    0.000
 RMSDP=2.47D-05 MaxDP=1.82D-03 DE=-9.97D-04 OVMax= 1.45D-02

 Cycle   7  Pass 0  IDiag  1:
 RMSU=  1.18D-05    CP:  9.56D-01  2.17D+00  8.02D-01  4.66D-01  6.08D-01
                    CP:  3.26D-01
 E= -1694.04981597657     Delta-E=       -0.000380192930 Rises=F Damp=F
 DIIS: error= 3.67D-04 at cycle   7 NSaved=   7.
 NSaved= 7 IEnMin= 7 EnMin= -1694.04981597657     IErMin= 7 ErrMin= 3.67D-04
 ErrMax= 3.67D-04  0.00D+00 EMaxC= 1.00D-01 BMatC= 3.23D-05 BMatP= 3.39D-04
 IDIUse=3 WtCom= 9.96D-01 WtEn= 3.67D-03
 Coeff-Com: -0.236D-02 0.283D-02 0.592D-01 0.602D-01 0.220D+00 0.293D+00
 Coeff-Com:  0.368D+00
 Coeff-En:   0.000D+00 0.000D+00 0.000D+00 0.000D+00 0.000D+00 0.658D-01
 Coeff-En:   0.934D+00
 Coeff:     -0.236D-02 0.282D-02 0.590D-01 0.600D-01 0.219D+00 0.292D+00
 Coeff:      0.370D+00
 Gap=     0.061 Goal=   None    Shift=    0.000
 RMSDP=7.43D-06 MaxDP=4.18D-04 DE=-3.80D-04 OVMax= 3.58D-03

 Initial convergence to 1.0D-05 achieved.  Increase integral accuracy.
 Cycle   8  Pass 1  IDiag  1:
 E= -1694.04937659228     Delta-E=        0.000439384289 Rises=F Damp=F
 DIIS: error= 8.46D-04 at cycle   1 NSaved=   1.
 NSaved= 1 IEnMin= 1 EnMin= -1694.04937659228     IErMin= 1 ErrMin= 8.46D-04
 ErrMax= 8.46D-04  0.00D+00 EMaxC= 1.00D-01 BMatC= 4.59D-05 BMatP= 4.59D-05
 IDIUse=3 WtCom= 9.92D-01 WtEn= 8.46D-03
 Coeff-Com:  0.100D+01
 Coeff-En:   0.100D+01
 Coeff:      0.100D+01
 Gap=     0.061 Goal=   None    Shift=    0.000
 RMSDP=7.43D-06 MaxDP=4.18D-04 DE= 4.39D-04 OVMax= 3.69D-03

 Cycle   9  Pass 1  IDiag  1:
 RMSU=  3.50D-04    CP:  9.98D-01
 E= -1694.04941105162     Delta-E=       -0.000034459342 Rises=F Damp=F
 DIIS: error= 3.17D-04 at cycle   2 NSaved=   2.
 NSaved= 2 IEnMin= 2 EnMin= -1694.04941105162     IErMin= 2 ErrMin= 3.17D-04
 ErrMax= 3.17D-04  0.00D+00 EMaxC= 1.00D-01 BMatC= 8.61D-06 BMatP= 4.59D-05
 IDIUse=3 WtCom= 9.97D-01 WtEn= 3.17D-03
 Coeff-Com:  0.190D+00 0.810D+00
 Coeff-En:   0.000D+00 0.100D+01
 Coeff:      0.189D+00 0.811D+00
 Gap=     0.061 Goal=   None    Shift=    0.000
 RMSDP=1.09D-05 MaxDP=8.43D-04 DE=-3.45D-05 OVMax= 7.65D-03

 Cycle  10  Pass 1  IDiag  1:
 RMSU=  1.05D-05    CP:  9.98D-01  1.01D+00
 E= -1694.04937280930     Delta-E=        0.000038242322 Rises=F Damp=F
 DIIS: error= 6.99D-04 at cycle   3 NSaved=   3.
 NSaved= 3 IEnMin= 2 EnMin= -1694.04941105162     IErMin= 2 ErrMin= 3.17D-04
 ErrMax= 6.99D-04  0.00D+00 EMaxC= 1.00D-01 BMatC= 3.88D-05 BMatP= 8.61D-06
 IDIUse=3 WtCom= 2.74D-01 WtEn= 7.26D-01
 Coeff-Com: -0.135D-03 0.681D+00 0.319D+00
 Coeff-En:   0.000D+00 0.746D+00 0.254D+00
 Coeff:     -0.370D-04 0.729D+00 0.271D+00
 Gap=     0.061 Goal=   None    Shift=    0.000
 RMSDP=6.16D-06 MaxDP=4.57D-04 DE= 3.82D-05 OVMax= 4.34D-03

 Cycle  11  Pass 1  IDiag  1:
 RMSU=  1.28D-06    CP:  9.98D-01  1.01D+00  4.39D-01
 E= -1694.04941984343     Delta-E=       -0.000047034130 Rises=F Damp=F
 DIIS: error= 1.19D-04 at cycle   4 NSaved=   4.
 NSaved= 4 IEnMin= 4 EnMin= -1694.04941984343     IErMin= 4 ErrMin= 1.19D-04
 ErrMax= 1.19D-04  0.00D+00 EMaxC= 1.00D-01 BMatC= 1.55D-06 BMatP= 8.61D-06
 IDIUse=3 WtCom= 9.99D-01 WtEn= 1.19D-03
 Coeff-Com: -0.373D-02 0.454D+00 0.138D+00 0.412D+00
 Coeff-En:   0.000D+00 0.211D+00 0.000D+00 0.789D+00
 Coeff:     -0.372D-02 0.453D+00 0.138D+00 0.413D+00
 Gap=     0.061 Goal=   None    Shift=    0.000
 RMSDP=1.38D-06 MaxDP=1.21D-04 DE=-4.70D-05 OVMax= 9.61D-04

 Cycle  12  Pass 1  IDiag  1:
 RMSU=  4.90D-07    CP:  9.98D-01  1.01D+00  3.21D-01  7.33D-01
 E= -1694.04942164710     Delta-E=       -0.000001803664 Rises=F Damp=F
 DIIS: error= 1.40D-05 at cycle   5 NSaved=   5.
 NSaved= 5 IEnMin= 5 EnMin= -1694.04942164710     IErMin= 5 ErrMin= 1.40D-05
 ErrMax= 1.40D-05  0.00D+00 EMaxC= 1.00D-01 BMatC= 1.81D-08 BMatP= 1.55D-06
 IDIUse=1 WtCom= 1.00D+00 WtEn= 0.00D+00
 Coeff-Com: -0.257D-02 0.287D+00 0.837D-01 0.282D+00 0.350D+00
 Coeff:     -0.257D-02 0.287D+00 0.837D-01 0.282D+00 0.350D+00
 Gap=     0.061 Goal=   None    Shift=    0.000
 RMSDP=1.70D-07 MaxDP=1.34D-05 DE=-1.80D-06 OVMax= 1.20D-04

 Cycle  13  Pass 1  IDiag  1:
 RMSU=  1.37D-07    CP:  9.98D-01  1.01D+00  3.22D-01  7.58D-01  8.06D-01
 E= -1694.04942166744     Delta-E=       -0.000000020340 Rises=F Damp=F
 DIIS: error= 3.34D-06 at cycle   6 NSaved=   6.
 NSaved= 6 IEnMin= 6 EnMin= -1694.04942166744     IErMin= 6 ErrMin= 3.34D-06
 ErrMax= 3.34D-06  0.00D+00 EMaxC= 1.00D-01 BMatC= 1.04D-09 BMatP= 1.81D-08
 IDIUse=1 WtCom= 1.00D+00 WtEn= 0.00D+00
 Coeff-Com: -0.109D-02 0.118D+00 0.338D-01 0.120D+00 0.221D+00 0.508D+00
 Coeff:     -0.109D-02 0.118D+00 0.338D-01 0.120D+00 0.221D+00 0.508D+00
 Gap=     0.061 Goal=   None    Shift=    0.000
 RMSDP=5.48D-08 MaxDP=3.34D-06 DE=-2.03D-08 OVMax= 2.92D-05

 Cycle  14  Pass 1  IDiag  1:
 RMSU=  4.29D-08    CP:  9.98D-01  1.01D+00  3.21D-01  7.49D-01  8.48D-01
                    CP:  8.41D-01
 E= -1694.04942166862     Delta-E=       -0.000000001180 Rises=F Damp=F
 DIIS: error= 6.23D-07 at cycle   7 NSaved=   7.
 NSaved= 7 IEnMin= 7 EnMin= -1694.04942166862     IErMin= 7 ErrMin= 6.23D-07
 ErrMax= 6.23D-07  0.00D+00 EMaxC= 1.00D-01 BMatC= 1.04D-10 BMatP= 1.04D-09
 IDIUse=1 WtCom= 1.00D+00 WtEn= 0.00D+00
 Coeff-Com: -0.416D-03 0.441D-01 0.123D-01 0.463D-01 0.946D-01 0.307D+00
 Coeff-Com:  0.496D+00
 Coeff:     -0.416D-03 0.441D-01 0.123D-01 0.463D-01 0.946D-01 0.307D+00
 Coeff:      0.496D+00
 Gap=     0.061 Goal=   None    Shift=    0.000
 RMSDP=1.41D-08 MaxDP=6.09D-07 DE=-1.18D-09 OVMax= 3.79D-06

 Cycle  15  Pass 1  IDiag  1:
 RMSU=  9.55D-09    CP:  9.98D-01  1.01D+00  3.22D-01  7.52D-01  8.49D-01
                    CP:  8.56D-01  7.85D-01
 E= -1694.04942166872     Delta-E=       -0.000000000104 Rises=F Damp=F
 DIIS: error= 1.63D-07 at cycle   8 NSaved=   8.
 NSaved= 8 IEnMin= 8 EnMin= -1694.04942166872     IErMin= 8 ErrMin= 1.63D-07
 ErrMax= 1.63D-07  0.00D+00 EMaxC= 1.00D-01 BMatC= 1.38D-11 BMatP= 1.04D-10
 IDIUse=1 WtCom= 1.00D+00 WtEn= 0.00D+00
 Coeff-Com: -0.878D-05 0.425D-03-0.203D-03 0.205D-02 0.542D-02 0.847D-01
 Coeff-Com:  0.283D+00 0.625D+00
 Coeff:     -0.878D-05 0.425D-03-0.203D-03 0.205D-02 0.542D-02 0.847D-01
 Coeff:      0.283D+00 0.625D+00
 Gap=     0.061 Goal=   None    Shift=    0.000
 RMSDP=5.57D-09 MaxDP=2.10D-07 DE=-1.04D-10 OVMax= 1.57D-06

 SCF Done:  E(RB3LYP) =  -1694.04942167     A.U. after   15 cycles
            NFock= 15  Conv=0.56D-08     -V/T= 2.0043
 KE= 1.686813078911D+03 PE=-1.331538681473D+04 EE= 5.242160831784D+03
 Leave Link  502 at Wed Sep 27 16:59:42 2023, MaxMem=  3221225472 cpu:            3959.9 elap:             107.4
 (Enter /home/center/opt/aarch64/apps/gaussian16/c01/g16/l601.exe)
 Copying SCF densities to generalized density rwf, IOpCl= 0 IROHF=0.

 **********************************************************************

            Population analysis using the SCF Density.

 **********************************************************************

 Orbital symmetries:
       Occupied  (A") (A') (A') (A") (A") (A') (A") (A') (A') (A")
                 (A') (A') (A") (A') (A") (A') (A") (A') (A") (A')
                 (A") (A') (A") (A') (A") (A') (A') (A") (A') (A")
                 (A") (A') (A") (A') (A') (A") (A') (A") (A') (A')
                 (A") (A') (A") (A') (A') (A") (A') (A") (A') (A')
                 (A") (A") (A') (A') (A") (A') (A') (A") (A') (A")
                 (A') (A") (A") (A") (A') (A') (A') (A') (A") (A")
                 (A') (A") (A") (A") (A') (A') (A") (A') (A') (A')
                 (A') (A") (A") (A') (A") (A") (A') (A") (A') (A')
                 (A") (A') (A") (A") (A') (A') (A") (A') (A") (A')
                 (A") (A') (A') (A') (A') (A') (A") (A") (A") (A')
                 (A') (A') (A") (A") (A") (A") (A") (A') (A") (A')
                 (A') (A') (A') (A") (A") (A') (A') (A") (A') (A")
                 (A") (A") (A') (A') (A") (A') (A") (A') (A') (A')
                 (A") (A") (A") (A") (A') (A')
       Virtual   (A') (A') (A") (A") (A") (A") (A') (A') (A') (A")
                 (A') (A') (A") (A') (A") (A') (A') (A') (A") (A")
                 (A') (A') (A") (A") (A') (A") (A') (A") (A") (A')
                 (A") (A') (A") (A') (A') (A") (A") (A') (A') (A")
                 (A') (A') (A') (A") (A') (A") (A") (A') (A") (A")
                 (A') (A') (A') (A') (A') (A") (A') (A') (A") (A')
                 (A") (A") (A") (A") (A') (A') (A") (A') (A") (A")
                 (A') (A') (A") (A') (A") (A') (A") (A') (A") (A")
                 (A') (A') (A') (A') (A") (A') (A') (A") (A') (A")
                 (A") (A') (A') (A") (A") (A') (A') (A") (A') (A")
                 (A') (A') (A") (A") (A') (A") (A') (A") (A") (A')
                 (A") (A") (A') (A') (A') (A") (A") (A') (A') (A')
                 (A") (A") (A') (A') (A') (A') (A") (A') (A") (A")
                 (A') (A') (A') (A") (A') (A") (A') (A") (A') (A')
                 (A") (A") (A') (A') (A") (A") (A") (A") (A') (A")
                 (A') (A") (A') (A") (A') (A") (A') (A') (A') (A')
                 (A") (A") (A') (A") (A') (A') (A") (A") (A') (A")
                 (A') (A') (A') (A") (A") (A') (A") (A") (A") (A')
                 (A') (A") (A') (A') (A") (A") (A') (A") (A') (A')
                 (A") (A') (A") (A') (A') (A") (A") (A') (A") (A')
                 (A") (A') (A") (A') (A") (A') (A') (A") (A') (A')
                 (A') (A") (A") (A") (A') (A') (A") (A") (A') (A")
                 (A') (A") (A') (A") (A") (A') (A') (A") (A') (A')
                 (A") (A') (A') (A") (A') (A") (A") (A') (A') (A")
                 (A') (A") (A") (A') (A') (A") (A') (A") (A") (A')
                 (A") (A') (A") (A') (A") (A") (A') (A') (A") (A')
                 (A') (A") (A") (A') (A') (A") (A') (A') (A") (A')
                 (A") (A") (A") (A') (A') (A") (A") (A') (A") (A')
                 (A") (A') (A") (A') (A') (A') (A") (A') (A") (A")
                 (A') (A") (A") (A') (A') (A") (A") (A") (A') (A')
                 (A') (A") (A') (A") (A') (A") (A') (A") (A') (A")
                 (A') (A") (A') (A") (A') (A") (A') (A') (A") (A')
                 (A") (A') (A") (A') (A') (A") (A') (A") (A") (A")
                 (A') (A") (A') (A") (A') (A") (A') (A") (A') (A')
                 (A') (A") (A') (A') (A") (A") (A') (A') (A") (A')
                 (A") (A') (A") (A') (A") (A') (A') (A') (A") (A')
                 (A") (A') (A") (A') (A") (A') (A") (A") (A") (A')
                 (A") (A") (A') (A") (A') (A") (A') (A") (A') (A")
                 (A') (A') (A") (A') (A') (A") (A') (A') (A') (A')
                 (A") (A") (A') (A") (A") (A') (A") (A') (A") (A')
                 (A") (A') (A') (A") (A') (A") (A') (A") (A") (A')
                 (A') (A") (A') (A") (A') (A') (A") (A") (A') (A')
                 (A') (A') (A") (A') (A") (A') (A') (A") (A") (A")
                 (A') (A") (A") (A') (A") (A") (A') (A') (A") (A')
                 (A") (A') (A") (A') (A") (A") (A') (A') (A") (A')
                 (A") (A') (A") (A') (A") (A') (A") (A") (A') (A')
                 (A") (A") (A') (A') (A") (A') (A") (A') (A') (A")
                 (A') (A") (A") (A") (A') (A') (A') (A") (A') (A")
                 (A') (A") (A") (A') (A") (A') (A") (A") (A') (A")
                 (A') (A") (A") (A') (A") (A") (A') (A") (A') (A')
                 (A") (A") (A') (A') (A') (A") (A') (A") (A') (A')
                 (A") (A") (A') (A') (A") (A') (A') (A") (A") (A")
                 (A') (A') (A") (A") (A') (A') (A') (A") (A") (A")
                 (A') (A") (A') (A") (A') (A") (A") (A') (A') (A')
                 (A") (A') (A') (A") (A") (A') (A") (A") (A') (A")
                 (A') (A") (A") (A') (A') (A") (A') (A') (A") (A")
                 (A') (A') (A') (A") (A") (A') (A") (A') (A') (A")
                 (A') (A") (A') (A') (A") (A') (A") (A') (A') (A")
                 (A") (A') (A") (A') (A") (A") (A") (A') (A') (A")
                 (A") (A') (A") (A') (A') (A') (A') (A") (A") (A')
                 (A') (A") (A') (A") (A') (A') (A") (A') (A") (A')
                 (A') (A") (A') (A") (A') (A') (A") (A") (A') (A")
                 (A') (A") (A") (A') (A") (A") (A') (A') (A') (A')
                 (A") (A") (A') (A') (A") (A') (A") (A') (A") (A")
                 (A') (A") (A') (A') (A") (A') (A') (A") (A') (A")
                 (A') (A") (A') (A") (A') (A") (A') (A') (A') (A")
                 (A") (A") (A') (A") (A') (A") (A') (A') (A") (A')
                 (A') (A") (A") (A") (A') (A') (A") (A") (A') (A')
                 (A') (A') (A") (A") (A') (A") (A") (A') (A") (A")
                 (A') (A') (A") (A') (A') (A") (A') (A") (A") (A')
                 (A') (A") (A') (A") (A') (A") (A') (A") (A") (A')
                 (A') (A") (A") (A") (A') (A') (A') (A") (A') (A")
                 (A') (A') (A") (A') (A") (A') (A") (A') (A") (A')
                 (A') (A") (A') (A") (A") (A') (A') (A") (A') (A")
                 (A') (A") (A') (A") (A') (A') (A") (A') (A') (A')
                 (A") (A') (A") (A") (A') (A") (A') (A') (A") (A")
                 (A") (A') (A") (A") (A') (A') (A") (A") (A') (A")
                 (A') (A') (A") (A") (A') (A') (A') (A') (A") (A")
                 (A") (A") (A') (A') (A') (A") (A') (A") (A') (A')
                 (A") (A") (A") (A") (A') (A') (A") (A') (A') (A")
                 (A') (A") (A') (A') (A") (A') (A") (A') (A") (A')
                 (A') (A") (A') (A")
 The electronic state is 1-A'.
 Alpha  occ. eigenvalues --  -10.19777 -10.19777 -10.19730 -10.19729 -10.19684
 Alpha  occ. eigenvalues --  -10.19683 -10.19601 -10.19601 -10.18864 -10.18785
 Alpha  occ. eigenvalues --  -10.18785 -10.18741 -10.18707 -10.18707 -10.18678
 Alpha  occ. eigenvalues --  -10.18678 -10.18590 -10.18590 -10.18583 -10.18583
 Alpha  occ. eigenvalues --  -10.18470 -10.18470 -10.17822 -10.17822 -10.17787
 Alpha  occ. eigenvalues --  -10.17787 -10.17706 -10.17705 -10.17635 -10.17635
 Alpha  occ. eigenvalues --  -10.16961 -10.16961 -10.16880 -10.16880 -10.16837
 Alpha  occ. eigenvalues --  -10.16836 -10.16832 -10.16771 -10.16771 -10.16526
 Alpha  occ. eigenvalues --  -10.16494 -10.16494 -10.16443 -10.16443  -0.90226
 Alpha  occ. eigenvalues --   -0.88723  -0.88219  -0.86778  -0.86394  -0.84479
 Alpha  occ. eigenvalues --   -0.83251  -0.81355  -0.80732  -0.79349  -0.79198
 Alpha  occ. eigenvalues --   -0.78671  -0.77466  -0.77197  -0.76861  -0.75066
 Alpha  occ. eigenvalues --   -0.74889  -0.73764  -0.73191  -0.71808  -0.70070
 Alpha  occ. eigenvalues --   -0.68234  -0.68030  -0.66271  -0.63557  -0.63181
 Alpha  occ. eigenvalues --   -0.61976  -0.61649  -0.61321  -0.60811  -0.60132
 Alpha  occ. eigenvalues --   -0.59981  -0.58854  -0.58505  -0.58211  -0.56630
 Alpha  occ. eigenvalues --   -0.53507  -0.53383  -0.53104  -0.51672  -0.51502
 Alpha  occ. eigenvalues --   -0.51247  -0.50461  -0.49295  -0.48593  -0.47955
 Alpha  occ. eigenvalues --   -0.47495  -0.46939  -0.46392  -0.46272  -0.46165
 Alpha  occ. eigenvalues --   -0.45588  -0.44889  -0.44714  -0.44410  -0.43951
 Alpha  occ. eigenvalues --   -0.43353  -0.42906  -0.42624  -0.42391  -0.42330
 Alpha  occ. eigenvalues --   -0.41772  -0.41662  -0.41506  -0.41180  -0.40754
 Alpha  occ. eigenvalues --   -0.40535  -0.40297  -0.40240  -0.39578  -0.39331
 Alpha  occ. eigenvalues --   -0.38961  -0.38525  -0.37548  -0.37286  -0.37100
 Alpha  occ. eigenvalues --   -0.36317  -0.35700  -0.35332  -0.34902  -0.34567
 Alpha  occ. eigenvalues --   -0.34313  -0.33843  -0.33477  -0.33375  -0.33046
 Alpha  occ. eigenvalues --   -0.33003  -0.31909  -0.30620  -0.30509  -0.29815
 Alpha  occ. eigenvalues --   -0.29164  -0.28600  -0.27401  -0.27223  -0.25571
 Alpha  occ. eigenvalues --   -0.25236  -0.23346  -0.23338  -0.21531  -0.18732
 Alpha  occ. eigenvalues --   -0.16776
 Alpha virt. eigenvalues --   -0.10681  -0.08684  -0.05396  -0.03703  -0.03431
 Alpha virt. eigenvalues --   -0.01733  -0.01147   0.00878   0.01122   0.01181
 Alpha virt. eigenvalues --    0.01751   0.03058   0.03331   0.03730   0.03981
 Alpha virt. eigenvalues --    0.04001   0.04857   0.05676   0.05678   0.06118
 Alpha virt. eigenvalues --    0.06228   0.06873   0.07196   0.07430   0.07753
 Alpha virt. eigenvalues --    0.08332   0.08770   0.09294   0.09450   0.09928
 Alpha virt. eigenvalues --    0.10719   0.10914   0.11625   0.12338   0.13003
 Alpha virt. eigenvalues --    0.13193   0.13433   0.13640   0.14079   0.14511
 Alpha virt. eigenvalues --    0.15141   0.16335   0.16504   0.17433   0.17616
 Alpha virt. eigenvalues --    0.17641   0.18131   0.18395   0.19313   0.20178
 Alpha virt. eigenvalues --    0.20849   0.20909   0.22136   0.22388   0.23696
 Alpha virt. eigenvalues --    0.23748   0.24147   0.24822   0.24857   0.25532
 Alpha virt. eigenvalues --    0.26171   0.26335   0.26659   0.26950   0.27382
 Alpha virt. eigenvalues --    0.27564   0.27964   0.28401   0.28710   0.28918
 Alpha virt. eigenvalues --    0.28959   0.29500   0.29625   0.29926   0.30186
 Alpha virt. eigenvalues --    0.30270   0.30501   0.31174   0.31331   0.32072
 Alpha virt. eigenvalues --    0.32596   0.33910   0.34096   0.34277   0.34601
 Alpha virt. eigenvalues --    0.35005   0.35588   0.35648   0.36003   0.36011
 Alpha virt. eigenvalues --    0.36461   0.36532   0.37312   0.37578   0.37722
 Alpha virt. eigenvalues --    0.37802   0.37932   0.38236   0.38801   0.38857
 Alpha virt. eigenvalues --    0.39187   0.39321   0.39643   0.39812   0.40224
 Alpha virt. eigenvalues --    0.40291   0.40601   0.40644   0.41269   0.41287
 Alpha virt. eigenvalues --    0.41495   0.41998   0.42049   0.42168   0.42348
 Alpha virt. eigenvalues --    0.42679   0.42939   0.43099   0.43232   0.43275
 Alpha virt. eigenvalues --    0.43277   0.44339   0.44512   0.44982   0.45098
 Alpha virt. eigenvalues --    0.45168   0.45500   0.45541   0.45582   0.45853
 Alpha virt. eigenvalues --    0.46080   0.46296   0.46581   0.46679   0.46803
 Alpha virt. eigenvalues --    0.46847   0.46965   0.47604   0.48047   0.48513
 Alpha virt. eigenvalues --    0.48722   0.48959   0.49040   0.49208   0.49577
 Alpha virt. eigenvalues --    0.50177   0.50401   0.50578   0.50595   0.51326
 Alpha virt. eigenvalues --    0.51501   0.51819   0.52086   0.52682   0.52890
 Alpha virt. eigenvalues --    0.53467   0.53897   0.54368   0.54728   0.55697
 Alpha virt. eigenvalues --    0.56016   0.56655   0.57354   0.57372   0.57541
 Alpha virt. eigenvalues --    0.58094   0.58122   0.58778   0.58993   0.58996
 Alpha virt. eigenvalues --    0.59461   0.59771   0.60113   0.60503   0.61199
 Alpha virt. eigenvalues --    0.61223   0.61510   0.61896   0.62060   0.62111
 Alpha virt. eigenvalues --    0.62225   0.62713   0.62791   0.62918   0.63259
 Alpha virt. eigenvalues --    0.63368   0.63655   0.63690   0.64092   0.64334
 Alpha virt. eigenvalues --    0.64399   0.64454   0.64971   0.65471   0.66377
 Alpha virt. eigenvalues --    0.66738   0.67568   0.68496   0.68593   0.68968
 Alpha virt. eigenvalues --    0.69049   0.69472   0.69603   0.70511   0.71384
 Alpha virt. eigenvalues --    0.71734   0.71992   0.72475   0.72524   0.72949
 Alpha virt. eigenvalues --    0.73448   0.73453   0.74520   0.74925   0.75078
 Alpha virt. eigenvalues --    0.75913   0.76157   0.76484   0.76730   0.77982
 Alpha virt. eigenvalues --    0.78255   0.78618   0.78984   0.79155   0.79429
 Alpha virt. eigenvalues --    0.79614   0.80254   0.80323   0.80875   0.80912
 Alpha virt. eigenvalues --    0.81101   0.81139   0.82179   0.82196   0.83593
 Alpha virt. eigenvalues --    0.83645   0.84140   0.84162   0.84720   0.84885
 Alpha virt. eigenvalues --    0.85801   0.85923   0.85989   0.86487   0.87679
 Alpha virt. eigenvalues --    0.87702   0.88733   0.89285   0.89877   0.90159
 Alpha virt. eigenvalues --    0.90332   0.90686   0.90696   0.92055   0.92132
 Alpha virt. eigenvalues --    0.92457   0.92697   0.93103   0.94539   0.94716
 Alpha virt. eigenvalues --    0.94965   0.95461   0.95644   0.95736   0.96466
 Alpha virt. eigenvalues --    0.97087   0.97218   0.97266   0.98182   0.98387
 Alpha virt. eigenvalues --    0.98962   0.99383   0.99686   0.99787   1.00354
 Alpha virt. eigenvalues --    1.00884   1.01363   1.01544   1.02106   1.02400
 Alpha virt. eigenvalues --    1.02881   1.03434   1.03846   1.03968   1.04259
 Alpha virt. eigenvalues --    1.05053   1.05181   1.05796   1.06223   1.06427
 Alpha virt. eigenvalues --    1.06575   1.06693   1.07232   1.07424   1.07579
 Alpha virt. eigenvalues --    1.07671   1.08563   1.09009   1.09064   1.09458
 Alpha virt. eigenvalues --    1.09963   1.10436   1.10839   1.11343   1.11536
 Alpha virt. eigenvalues --    1.11553   1.12313   1.12454   1.12863   1.13460
 Alpha virt. eigenvalues --    1.13888   1.14103   1.14523   1.15126   1.15396
 Alpha virt. eigenvalues --    1.15573   1.16425   1.16737   1.17006   1.17647
 Alpha virt. eigenvalues --    1.18189   1.19267   1.19444   1.19445   1.21360
 Alpha virt. eigenvalues --    1.21591   1.23084   1.23576   1.25104   1.25593
 Alpha virt. eigenvalues --    1.26316   1.26504   1.28110   1.29094   1.30547
 Alpha virt. eigenvalues --    1.32234   1.32805   1.32858   1.33343   1.35039
 Alpha virt. eigenvalues --    1.35626   1.36174   1.36924   1.37723   1.38518
 Alpha virt. eigenvalues --    1.39727   1.39900   1.40777   1.41059   1.41859
 Alpha virt. eigenvalues --    1.41921   1.42077   1.42635   1.42826   1.43902
 Alpha virt. eigenvalues --    1.44002   1.44398   1.44852   1.45308   1.46011
 Alpha virt. eigenvalues --    1.46883   1.46985   1.47251   1.47911   1.48024
 Alpha virt. eigenvalues --    1.48178   1.48469   1.48802   1.49237   1.49776
 Alpha virt. eigenvalues --    1.49883   1.50372   1.50558   1.50816   1.50924
 Alpha virt. eigenvalues --    1.51430   1.52015   1.52178   1.52441   1.53686
 Alpha virt. eigenvalues --    1.53702   1.54231   1.54862   1.55325   1.55376
 Alpha virt. eigenvalues --    1.55445   1.55884   1.56297   1.56460   1.57225
 Alpha virt. eigenvalues --    1.57247   1.57559   1.58298   1.59396   1.59738
 Alpha virt. eigenvalues --    1.60273   1.60371   1.61491   1.61801   1.61858
 Alpha virt. eigenvalues --    1.62951   1.63720   1.63860   1.63862   1.64656
 Alpha virt. eigenvalues --    1.65047   1.65584   1.67478   1.67919   1.68621
 Alpha virt. eigenvalues --    1.69227   1.69552   1.70185   1.70887   1.71363
 Alpha virt. eigenvalues --    1.71632   1.71729   1.71880   1.72036   1.72282
 Alpha virt. eigenvalues --    1.72618   1.73547   1.74223   1.74227   1.74457
 Alpha virt. eigenvalues --    1.74803   1.75579   1.75964   1.76463   1.76764
 Alpha virt. eigenvalues --    1.77755   1.78771   1.79601   1.79931   1.80348
 Alpha virt. eigenvalues --    1.80569   1.81014   1.81418   1.81473   1.81935
 Alpha virt. eigenvalues --    1.82291   1.82822   1.83131   1.83482   1.83516
 Alpha virt. eigenvalues --    1.84588   1.85015   1.85403   1.85694   1.86031
 Alpha virt. eigenvalues --    1.86141   1.86843   1.86877   1.87584   1.88315
 Alpha virt. eigenvalues --    1.88708   1.88772   1.88926   1.89320   1.89448
 Alpha virt. eigenvalues --    1.89620   1.90443   1.90521   1.91006   1.91246
 Alpha virt. eigenvalues --    1.91595   1.91737   1.92068   1.92436   1.92864
 Alpha virt. eigenvalues --    1.93460   1.93587   1.94243   1.94749   1.94894
 Alpha virt. eigenvalues --    1.95094   1.95550   1.95711   1.96410   1.96413
 Alpha virt. eigenvalues --    1.97381   1.97537   1.97658   1.98894   1.99775
 Alpha virt. eigenvalues --    2.00006   2.00474   2.00921   2.01403   2.01730
 Alpha virt. eigenvalues --    2.01982   2.02370   2.03276   2.04803   2.05287
 Alpha virt. eigenvalues --    2.06263   2.07613   2.08096   2.09063   2.09372
 Alpha virt. eigenvalues --    2.09871   2.10246   2.11420   2.11776   2.12244
 Alpha virt. eigenvalues --    2.13052   2.13475   2.13708   2.13982   2.15189
 Alpha virt. eigenvalues --    2.16063   2.16520   2.16734   2.17760   2.18411
 Alpha virt. eigenvalues --    2.19203   2.19970   2.20233   2.22036   2.22516
 Alpha virt. eigenvalues --    2.22719   2.23414   2.23779   2.24169   2.24343
 Alpha virt. eigenvalues --    2.24690   2.26179   2.26456   2.26648   2.27426
 Alpha virt. eigenvalues --    2.27463   2.27773   2.28531   2.28633   2.29399
 Alpha virt. eigenvalues --    2.29498   2.31694   2.31783   2.32617   2.33581
 Alpha virt. eigenvalues --    2.34392   2.35212   2.37194   2.37414   2.38626
 Alpha virt. eigenvalues --    2.39390   2.40434   2.40761   2.42066   2.42310
 Alpha virt. eigenvalues --    2.42922   2.43358   2.45079   2.45239   2.46042
 Alpha virt. eigenvalues --    2.47069   2.47273   2.47488   2.48291   2.50336
 Alpha virt. eigenvalues --    2.51094   2.51391   2.52578   2.53321   2.54115
 Alpha virt. eigenvalues --    2.55013   2.55455   2.55802   2.56509   2.56736
 Alpha virt. eigenvalues --    2.58046   2.58233   2.58937   2.59029   2.59765
 Alpha virt. eigenvalues --    2.59855   2.60709   2.60785   2.61141   2.61235
 Alpha virt. eigenvalues --    2.61577   2.62273   2.62515   2.63104   2.63542
 Alpha virt. eigenvalues --    2.64598   2.64732   2.64807   2.64961   2.65255
 Alpha virt. eigenvalues --    2.66557   2.66656   2.66816   2.67107   2.67483
 Alpha virt. eigenvalues --    2.68035   2.68290   2.68389   2.68763   2.69050
 Alpha virt. eigenvalues --    2.69228   2.69327   2.69746   2.70420   2.70833
 Alpha virt. eigenvalues --    2.71347   2.71562   2.71747   2.72006   2.72258
 Alpha virt. eigenvalues --    2.73297   2.73469   2.73851   2.74565   2.74710
 Alpha virt. eigenvalues --    2.75471   2.76568   2.76746   2.76907   2.77325
 Alpha virt. eigenvalues --    2.77384   2.78087   2.78538   2.80012   2.80030
 Alpha virt. eigenvalues --    2.80322   2.80518   2.81286   2.81525   2.82419
 Alpha virt. eigenvalues --    2.82978   2.83392   2.83714   2.84391   2.84397
 Alpha virt. eigenvalues --    2.85065   2.86094   2.86272   2.86760   2.87147
 Alpha virt. eigenvalues --    2.88669   2.88802   2.90403   2.90691   2.91501
 Alpha virt. eigenvalues --    2.91884   2.91976   2.92248   2.93001   2.93149
 Alpha virt. eigenvalues --    2.93469   2.93841   2.95714   2.95772   2.96498
 Alpha virt. eigenvalues --    2.96656   2.96910   2.97994   2.98219   2.98524
 Alpha virt. eigenvalues --    2.98962   3.00807   3.01101   3.04260   3.05268
 Alpha virt. eigenvalues --    3.06669   3.07178   3.08649   3.09002   3.09684
 Alpha virt. eigenvalues --    3.11550   3.11819   3.15992   3.16651   3.16719
 Alpha virt. eigenvalues --    3.17534   3.18599   3.18750   3.19899   3.20337
 Alpha virt. eigenvalues --    3.21969   3.22847   3.23433   3.25923   3.30049
 Alpha virt. eigenvalues --    3.30241   3.31545   3.31884   3.32166   3.34961
 Alpha virt. eigenvalues --    3.35916   3.36316   3.36832   3.37095   3.37802
 Alpha virt. eigenvalues --    3.38163   3.38360   3.39114   3.40171   3.40550
 Alpha virt. eigenvalues --    3.42172   3.42711   3.42730   3.44151   3.45509
 Alpha virt. eigenvalues --    3.45970   3.46713   3.47871   3.49202   3.49424
 Alpha virt. eigenvalues --    3.51145   3.51426   3.52000   3.52446   3.53721
 Alpha virt. eigenvalues --    3.56181   3.57692   3.59258   3.59588   3.60918
 Alpha virt. eigenvalues --    3.62646   3.62969   3.63755   3.64657   3.64997
 Alpha virt. eigenvalues --    3.65489   3.66932   3.68306   3.68379   3.68755
 Alpha virt. eigenvalues --    3.69610   3.70285   3.70761   3.70952   4.00445
 Alpha virt. eigenvalues --    4.00501   4.01182   4.01415   4.02813   4.02832
 Alpha virt. eigenvalues --    4.03338   4.03572   4.15818   4.16408   4.18034
 Alpha virt. eigenvalues --    4.19691   4.20569   4.20602   4.21921   4.22152
 Alpha virt. eigenvalues --    4.22637   4.24910   4.24970   4.26150   4.30589
 Alpha virt. eigenvalues --    4.30982   4.38047   4.41972   4.61959   4.65270
 Alpha virt. eigenvalues --    4.78451   4.79096   4.79820   4.81151   4.81486
 Alpha virt. eigenvalues --    4.81913   4.82288   4.83002   4.85291   4.85678
 Alpha virt. eigenvalues --   23.40085  23.43665  23.55272  23.59235  23.69744
 Alpha virt. eigenvalues --   23.73287  23.78296  23.79778  23.80820  23.82083
 Alpha virt. eigenvalues --   23.82963  23.84772  23.86804  23.88076  23.89589
 Alpha virt. eigenvalues --   23.89636  23.90838  23.91417  23.92679  23.95257
 Alpha virt. eigenvalues --   23.96874  23.98365  23.98880  23.99753  24.08799
 Alpha virt. eigenvalues --   24.09324  24.10080  24.10440  24.11213  24.11836
 Alpha virt. eigenvalues --   24.12483  24.13623  24.13905  24.14169  24.15141
 Alpha virt. eigenvalues --   24.15183  24.15326  24.15993  24.16885  24.16920
 Alpha virt. eigenvalues --   24.19959  24.20009  24.21762  24.21830
          Condensed to atoms (all electrons):
 Mulliken charges:
               1
     1  C   -0.039860
     2  C   -0.017951
     3  C   -0.048939
     4  C   -0.138480
     5  C   -0.081854
     6  C   -0.072132
     7  C   -0.000553
     8  C   -0.038989
     9  C   -0.119560
    10  C   -0.003006
    11  H    0.085548
    12  H    0.078640
    13  H    0.083790
    14  H    0.093755
    15  H    0.099693
    16  H    0.097903
    17  C   -0.005927
    18  C   -0.038989
    19  C   -0.123172
    20  C   -0.003006
    21  H    0.077367
    22  H    0.082596
    23  C   -0.000553
    24  C   -0.039860
    25  C   -0.119560
    26  C   -0.017951
    27  H    0.078640
    28  H    0.083790
    29  C   -0.048939
    30  C   -0.081854
    31  C   -0.138480
    32  C   -0.072132
    33  H    0.085548
    34  H    0.097903
    35  H    0.099693
    36  H    0.093755
    37  C   -0.009769
    38  C   -0.131108
    39  C   -0.064227
    40  C   -0.041869
    41  C   -0.085351
    42  C   -0.127406
    43  C   -0.033196
    44  C    0.004726
    45  C   -0.006596
    46  C   -0.140738
    47  H    0.077755
    48  H    0.069147
    49  H    0.125931
    50  H    0.126394
    51  H    0.081836
    52  H    0.090005
    53  C   -0.036733
    54  C    0.004726
    55  C   -0.013122
    56  C   -0.140738
    57  H    0.067770
    58  H    0.124144
    59  C   -0.033196
    60  C   -0.009769
    61  C   -0.006596
    62  C   -0.131108
    63  H    0.069147
    64  H    0.125931
    65  C   -0.064227
    66  C   -0.085351
    67  C   -0.041869
    68  C   -0.127406
    69  H    0.077755
    70  H    0.090005
    71  H    0.081836
    72  H    0.126394
 Sum of Mulliken charges =   0.00000
 Mulliken charges with hydrogens summed into heavy atoms:
               1
     1  C   -0.039860
     2  C   -0.017951
     3  C    0.036609
     4  C   -0.044725
     5  C    0.016050
     6  C    0.027561
     7  C    0.078087
     8  C   -0.038989
     9  C   -0.035770
    10  C   -0.003006
    17  C    0.071440
    18  C   -0.038989
    19  C   -0.040576
    20  C   -0.003006
    23  C    0.078087
    24  C   -0.039860
    25  C   -0.035770
    26  C   -0.017951
    29  C    0.036609
    30  C    0.016050
    31  C   -0.044725
    32  C    0.027561
    37  C   -0.009769
    38  C   -0.131108
    39  C    0.013529
    40  C    0.084524
    41  C    0.004654
    42  C   -0.045570
    43  C    0.035951
    44  C    0.004726
    45  C    0.119335
    46  C   -0.140738
    53  C    0.031037
    54  C    0.004726
    55  C    0.111022
    56  C   -0.140738
    59  C    0.035951
    60  C   -0.009769
    61  C    0.119335
    62  C   -0.131108
    65  C    0.013529
    66  C    0.004654
    67  C    0.084524
    68  C   -0.045570
         Mulliken charges condensed to fragments:
      1     -0.013126
      2      0.013126
 Electronic spatial extent (au):  <R**2>=          25197.3052
 Charge=              0.0000 electrons
 Dipole moment (field-independent basis, Debye):
    X=              1.1708    Y=             -1.8521    Z=              0.0000  Tot=              2.1911
 Quadrupole moment (field-independent basis, Debye-Ang):
   XX=           -245.4718   YY=           -250.1262   ZZ=           -219.7674
   XY=             -0.3517   XZ=              0.0000   YZ=              0.0000
 Traceless Quadrupole moment (field-independent basis, Debye-Ang):
   XX=             -7.0167   YY=            -11.6711   ZZ=             18.6877
   XY=             -0.3517   XZ=              0.0000   YZ=              0.0000
 Octapole moment (field-independent basis, Debye-Ang**2):
  XXX=             68.5253  YYY=            158.0630  ZZZ=              0.0000  XYY=            -12.5049
  XXY=            -68.5595  XXZ=              0.0000  XZZ=             20.8490  YZZ=            -41.5954
  YYZ=              0.0000  XYZ=              0.0000
 Hexadecapole moment (field-independent basis, Debye-Ang**3):
 XXXX=          -2188.8462 YYYY=          -9788.7369 ZZZZ=         -21047.2441 XXXY=           1398.0994
 XXXZ=              0.0000 YYYX=           1413.1691 YYYZ=              0.0000 ZZZX=              0.0000
 ZZZY=              0.0000 XXYY=          -2070.3690 XXZZ=          -4295.5284 YYZZ=          -5465.1293
 XXYZ=              0.0000 YYXZ=              0.0000 ZZXY=            414.3026
 N-N= 4.692363482361D+03 E-N=-1.331538683289D+04  KE= 1.686813078911D+03
 Symmetry A'   KE= 9.135024256764D+02
 Symmetry A"   KE= 7.733106532345D+02
 No NMR shielding tensors so no spin-rotation constants.
 Leave Link  601 at Wed Sep 27 16:59:46 2023, MaxMem=  3221225472 cpu:              45.5 elap:               1.7
 (Enter /home/center/opt/aarch64/apps/gaussian16/c01/g16/l122.exe)
 CPIOFr:  IOpCl= 0 IRwI=-1 IRwCP=  731 ICalc= -1 LCPTot=     1419224 Len1MO=     3708034 IndFrg=     1419224
 CPIOFr:  IOpCl= 0 IRwI=-1 IRwCP=  731 ICalc=  0 LCPTot=     1419224 Len1MO=     3708034 IndFrg=     5127258
 Counterpoise: doing calculation for fragment   1 using the basis set of the full-system, NewBq=T
 Leave Link  122 at Wed Sep 27 16:59:49 2023, MaxMem=  3221225472 cpu:               8.4 elap:               0.5
 (Enter /home/center/opt/aarch64/apps/gaussian16/c01/g16/l301.exe)
 Basis read from rwf:  (5D, 7F)
 No pseudopotential information found on rwf file.
 There are   528 symmetry adapted cartesian basis functions of A'  symmetry.
 There are   476 symmetry adapted cartesian basis functions of A"  symmetry.
 There are   504 symmetry adapted basis functions of A'  symmetry.
 There are   456 symmetry adapted basis functions of A"  symmetry.
   960 basis functions,  1632 primitive gaussians,  1004 cartesian basis functions
    73 alpha electrons       73 beta electrons
       nuclear repulsion energy      1494.3575059968 Hartrees.
 IExCor=  402 DFT=T Ex+Corr=B3LYP ExCW=0 ScaHFX=  0.200000
 ScaDFX=  0.800000  0.720000  1.000000  0.810000 ScalE2=  1.000000  1.000000
 IRadAn=      5 IRanWt=     -1 IRanGd=            0 ICorTp=0 IEmpDi=131
 NAtoms=   72 NActive=   72 NUniq=   40 SFac= 3.24D+00 NAtFMM=   60 NAOKFM=T Big=F
 Integral buffers will be    131072 words long.
 Raffenetti 2 integral format.
 Two-electron integral symmetry is turned on.
 R6Disp:  Grimme-D3 Dispersion energy=       -0.0303938888 Hartrees.
 Nuclear repulsion after empirical dispersion term =     1494.3271121079 Hartrees.
 No density basis found on file    718.
 Leave Link  301 at Wed Sep 27 16:59:51 2023, MaxMem=  3221225472 cpu:               2.7 elap:               0.1
 (Enter /home/center/opt/aarch64/apps/gaussian16/c01/g16/l302.exe)
 NPDir=0 NMtPBC=     1 NCelOv=     1 NCel=       1 NClECP=     1 NCelD=      1
         NCelK=      1 NCelE2=     1 NClLst=     1 CellRange=     0.0.
 One-electron integrals computed using PRISM.
 One-electron integral symmetry used in STVInt
 NBasis=   960 RedAO= T EigKep=  3.60D-05  NBF=   504   456
 NBsUse=   960 1.00D-06 EigRej= -1.00D+00 NBFU=   504   456
 Precomputing XC quadrature grid using
 IXCGrd= 4 IRadAn=           5 IRanWt=          -1 IRanGd=           0 AccXCQ= 0.00D+00.
 Generated NRdTot=       0 NPtTot=           0 NUsed=           0 NTot=          32
 NSgBfM=   991   991   991   991   991 MxSgAt=    72 MxSgA2=    72.
 Leave Link  302 at Wed Sep 27 16:59:55 2023, MaxMem=  3221225472 cpu:              62.8 elap:               1.7
 (Enter /home/center/opt/aarch64/apps/gaussian16/c01/g16/l303.exe)
 DipDrv:  MaxL=1.
 Leave Link  303 at Wed Sep 27 16:59:58 2023, MaxMem=  3221225472 cpu:              13.0 elap:               0.4
 (Enter /home/center/opt/aarch64/apps/gaussian16/c01/g16/l401.exe)
 ExpMin= 1.03D-01 ExpMax= 4.56D+03 ExpMxC= 6.82D+02 IAcc=3 IRadAn=         5 AccDes= 0.00D+00
 Harris functional with IExCor=  402 and IRadAn=       5 diagonalized for initial guess.
 HarFok:  IExCor=  402 AccDes= 0.00D+00 IRadAn=         5 IDoV= 1 UseB2=F ITyADJ=14
 ICtDFT=  3500011 ScaDFX=  1.000000  1.000000  1.000000  1.000000
 FoFCou: FMM=F IPFlag=           0 FMFlag=      100000 FMFlg1=        2000
         NFxFlg=           0 DoJE=T BraDBF=F KetDBF=T FulRan=T
         wScrn=  0.000000 ICntrl=       500 IOpCl=  0 I1Cent=   200000004 NGrid=           0
         NMat0=    1 NMatS0=      1 NMatT0=    0 NMatD0=    1 NMtDS0=    0 NMtDT0=    0
 Petite list used in FoFCou.
 Harris En= -847.066803284491    
 JPrj=0 DoOrth=F DoCkMO=F.
 Initial guess orbital symmetries:
       Occupied  (A") (A') (A') (A") (A") (A') (A") (A') (A") (A')
                 (A") (A') (A') (A') (A") (A') (A") (A') (A") (A')
                 (A') (A") (A') (A") (A') (A") (A') (A') (A") (A')
                 (A") (A") (A') (A') (A") (A") (A') (A") (A') (A')
                 (A') (A") (A") (A") (A') (A') (A") (A') (A') (A")
                 (A') (A") (A") (A') (A') (A") (A') (A") (A') (A")
                 (A") (A') (A') (A") (A') (A") (A') (A") (A') (A')
                 (A") (A") (A')
       Virtual   (A') (A") (A") (A') (A') (A") (A') (A") (A') (A")
                 (A') (A') (A") (A') (A") (A') (A') (A") (A') (A")
                 (A") (A") (A') (A') (A") (A') (A') (A') (A') (A")
                 (A') (A") (A") (A') (A') (A") (A') (A") (A") (A')
                 (A') (A") (A") (A') (A") (A') (A') (A") (A") (A')
                 (A") (A') (A") (A') (A') (A') (A") (A") (A') (A")
                 (A') (A') (A') (A') (A") (A") (A") (A') (A") (A')
                 (A') (A") (A") (A') (A') (A") (A') (A') (A') (A")
                 (A') (A") (A') (A") (A") (A') (A') (A") (A") (A')
                 (A") (A") (A") (A') (A') (A") (A') (A") (A') (A')
                 (A') (A") (A') (A') (A") (A') (A') (A") (A') (A")
                 (A") (A") (A') (A') (A") (A") (A') (A") (A") (A')
                 (A') (A") (A') (A") (A') (A') (A') (A') (A") (A")
                 (A') (A') (A") (A") (A') (A') (A") (A') (A") (A')
                 (A') (A") (A') (A") (A') (A") (A") (A') (A") (A")
                 (A') (A') (A") (A') (A") (A') (A") (A') (A") (A')
                 (A') (A") (A") (A') (A') (A") (A') (A") (A') (A")
                 (A') (A") (A") (A') (A") (A') (A') (A') (A") (A')
                 (A") (A') (A") (A') (A") (A") (A') (A') (A") (A")
                 (A') (A') (A') (A') (A") (A") (A") (A') (A') (A")
                 (A") (A') (A') (A") (A') (A") (A') (A") (A') (A")
                 (A') (A") (A') (A") (A') (A") (A') (A") (A') (A")
                 (A") (A') (A") (A') (A') (A") (A') (A') (A") (A')
                 (A') (A") (A') (A") (A") (A') (A") (A") (A') (A")
                 (A') (A') (A") (A') (A") (A') (A") (A') (A") (A')
                 (A") (A') (A") (A') (A') (A") (A") (A") (A') (A')
                 (A") (A") (A') (A') (A') (A") (A') (A') (A") (A')
                 (A') (A") (A") (A") (A") (A') (A") (A') (A') (A")
                 (A") (A') (A") (A') (A') (A") (A') (A") (A') (A')
                 (A") (A') (A") (A') (A') (A") (A') (A") (A') (A')
                 (A") (A') (A") (A") (A') (A") (A') (A") (A") (A')
                 (A") (A') (A') (A") (A") (A') (A') (A") (A') (A")
                 (A") (A') (A') (A") (A') (A') (A") (A') (A") (A')
                 (A') (A") (A') (A') (A') (A") (A") (A') (A") (A")
                 (A") (A') (A") (A') (A") (A') (A') (A") (A') (A')
                 (A") (A') (A") (A') (A") (A') (A") (A') (A') (A')
                 (A') (A") (A") (A') (A") (A') (A") (A") (A') (A")
                 (A') (A") (A") (A') (A") (A') (A") (A') (A") (A')
                 (A") (A') (A") (A') (A") (A') (A') (A") (A') (A")
                 (A') (A") (A') (A") (A') (A') (A") (A") (A') (A")
                 (A") (A') (A") (A') (A") (A') (A') (A") (A') (A')
                 (A") (A") (A') (A') (A") (A') (A') (A") (A') (A")
                 (A") (A") (A') (A") (A') (A") (A') (A") (A") (A')
                 (A") (A') (A') (A') (A') (A') (A") (A") (A") (A')
                 (A') (A") (A') (A") (A") (A') (A') (A') (A") (A')
                 (A") (A") (A') (A') (A") (A") (A') (A") (A') (A")
                 (A") (A') (A') (A') (A") (A") (A") (A') (A') (A")
                 (A') (A') (A") (A") (A") (A') (A") (A') (A') (A")
                 (A") (A') (A") (A') (A") (A') (A") (A') (A") (A')
                 (A') (A") (A') (A') (A") (A") (A") (A') (A") (A')
                 (A") (A') (A') (A") (A') (A') (A") (A') (A") (A")
                 (A") (A') (A') (A") (A") (A") (A') (A') (A') (A')
                 (A') (A") (A") (A') (A") (A") (A') (A") (A') (A")
                 (A') (A') (A') (A") (A') (A") (A') (A") (A') (A')
                 (A") (A') (A") (A") (A') (A") (A') (A') (A") (A')
                 (A") (A') (A") (A') (A") (A') (A") (A") (A') (A')
                 (A') (A") (A') (A") (A") (A') (A") (A") (A') (A')
                 (A') (A") (A') (A") (A') (A') (A') (A") (A") (A")
                 (A') (A") (A') (A") (A") (A') (A') (A") (A') (A')
                 (A') (A") (A") (A') (A') (A") (A") (A') (A") (A")
                 (A') (A') (A") (A') (A") (A") (A') (A") (A') (A')
                 (A") (A') (A') (A") (A') (A") (A') (A") (A') (A')
                 (A") (A") (A') (A") (A') (A") (A") (A') (A") (A')
                 (A") (A") (A') (A") (A') (A") (A') (A') (A') (A')
                 (A") (A") (A") (A") (A') (A') (A') (A') (A") (A")
                 (A") (A') (A') (A") (A') (A") (A") (A') (A') (A")
                 (A") (A') (A") (A") (A') (A") (A') (A') (A") (A')
                 (A') (A") (A') (A") (A") (A') (A') (A") (A') (A')
                 (A") (A') (A") (A') (A') (A") (A") (A') (A') (A")
                 (A') (A") (A') (A') (A") (A") (A") (A') (A') (A')
[...]
                 (A') (A') (A") (A") (A') (A") (A') (A") (A') (A')
                 (A") (A") (A')
       Virtual   (A') (A") (A") (A') (A') (A") (A') (A') (A') (A")
                 (A") (A') (A") (A') (A") (A') (A") (A") (A') (A")
                 (A') (A') (A") (A') (A") (A') (A') (A') (A') (A")
                 (A") (A") (A") (A') (A') (A") (A') (A") (A') (A")
                 (A') (A') (A') (A") (A') (A") (A") (A') (A') (A")
                 (A") (A') (A') (A") (A') (A") (A") (A") (A') (A")
                 (A') (A') (A') (A') (A') (A") (A') (A') (A") (A")
                 (A") (A') (A') (A') (A") (A') (A") (A") (A") (A')
                 (A') (A") (A') (A") (A") (A') (A") (A') (A') (A')
                 (A') (A') (A") (A") (A") (A") (A') (A") (A') (A")
                 (A') (A') (A') (A") (A") (A') (A') (A") (A') (A")
                 (A') (A") (A") (A") (A') (A') (A") (A') (A') (A")
                 (A') (A") (A") (A') (A') (A") (A') (A") (A') (A")
                 (A") (A') (A') (A') (A') (A") (A") (A") (A') (A")
                 (A') (A") (A') (A") (A') (A') (A") (A") (A') (A")
                 (A') (A") (A') (A") (A') (A') (A") (A') (A") (A")
                 (A') (A") (A') (A') (A") (A") (A') (A") (A') (A")
                 (A') (A') (A") (A') (A') (A") (A") (A') (A') (A')
                 (A") (A') (A") (A") (A") (A") (A') (A") (A') (A')
                 (A") (A') (A") (A') (A') (A') (A") (A') (A") (A')
                 (A") (A") (A') (A') (A") (A") (A') (A') (A") (A')
                 (A') (A') (A') (A") (A") (A") (A") (A') (A') (A")
                 (A') (A") (A") (A') (A") (A') (A") (A') (A") (A')
                 (A") (A') (A') (A") (A') (A") (A") (A') (A') (A")
                 (A") (A') (A') (A") (A") (A') (A") (A") (A") (A')
                 (A') (A") (A') (A') (A") (A') (A') (A") (A') (A")
                 (A") (A') (A") (A') (A') (A") (A") (A") (A') (A')
                 (A") (A') (A') (A") (A") (A") (A') (A") (A') (A')
                 (A") (A') (A") (A') (A") (A') (A') (A') (A") (A')
                 (A") (A") (A') (A') (A") (A") (A') (A") (A') (A")
                 (A') (A') (A") (A") (A') (A') (A") (A') (A') (A')
                 (A") (A") (A') (A") (A') (A") (A') (A") (A') (A')
                 (A') (A") (A") (A") (A') (A") (A') (A') (A') (A")
                 (A") (A') (A") (A') (A') (A") (A') (A") (A") (A')
                 (A') (A") (A') (A") (A") (A') (A') (A") (A') (A")
                 (A') (A") (A') (A") (A') (A") (A") (A') (A') (A")
                 (A') (A") (A') (A') (A") (A") (A') (A") (A') (A')
                 (A") (A') (A") (A') (A') (A") (A') (A") (A') (A")
                 (A") (A') (A") (A') (A") (A') (A") (A') (A') (A")
                 (A") (A') (A") (A') (A') (A") (A") (A') (A') (A")
                 (A') (A") (A') (A") (A') (A') (A")
 The electronic state is 1-A'.
 Alpha  occ. eigenvalues --  -10.18931 -10.18930 -10.18896 -10.18895 -10.18848
 Alpha  occ. eigenvalues --  -10.18848 -10.18813 -10.18813 -10.17956 -10.17955
 Alpha  occ. eigenvalues --  -10.17920 -10.17920 -10.17919 -10.17919 -10.17875
 Alpha  occ. eigenvalues --  -10.17875 -10.17863 -10.17863 -10.17808 -10.17808
 Alpha  occ. eigenvalues --  -10.17781 -10.17781  -0.89340  -0.87865  -0.85549
 Alpha  occ. eigenvalues --   -0.82415  -0.79820  -0.78521  -0.78314  -0.75991
 Alpha  occ. eigenvalues --   -0.74255  -0.72901  -0.69196  -0.67344  -0.62728
 Alpha  occ. eigenvalues --   -0.62370  -0.61108  -0.59964  -0.59301  -0.57689
 Alpha  occ. eigenvalues --   -0.52709  -0.52573  -0.52293  -0.49654  -0.48513
 Alpha  occ. eigenvalues --   -0.47160  -0.46110  -0.45590  -0.45476  -0.43928
 Alpha  occ. eigenvalues --   -0.43182  -0.42578  -0.41808  -0.41572  -0.41386
 Alpha  occ. eigenvalues --   -0.40692  -0.40405  -0.39579  -0.38193  -0.36732
 Alpha  occ. eigenvalues --   -0.36341  -0.35550  -0.34094  -0.33809  -0.33058
 Alpha  occ. eigenvalues --   -0.32930  -0.31612  -0.29665  -0.28406  -0.26623
 Alpha  occ. eigenvalues --   -0.24364  -0.22582  -0.17855
 Alpha virt. eigenvalues --   -0.09755  -0.04464  -0.02747  -0.00147   0.02073
 Alpha virt. eigenvalues --    0.02370   0.03189   0.04746   0.04859   0.04871
 Alpha virt. eigenvalues --    0.06161   0.06575   0.07968   0.08162   0.08303
 Alpha virt. eigenvalues --    0.09607   0.10049   0.11524   0.11533   0.13796
 Alpha virt. eigenvalues --    0.14111   0.14670   0.18092   0.18194   0.18832
 Alpha virt. eigenvalues --    0.19391   0.22815   0.23002   0.24379   0.24942
 Alpha virt. eigenvalues --    0.25581   0.27528   0.27575   0.28012   0.28228
 Alpha virt. eigenvalues --    0.28947   0.29389   0.30158   0.30759   0.31175
 Alpha virt. eigenvalues --    0.32897   0.34528   0.36420   0.36484   0.37134
 Alpha virt. eigenvalues --    0.37503   0.37629   0.37651   0.38116   0.38643
 Alpha virt. eigenvalues --    0.39094   0.39439   0.39739   0.40236   0.40435
 Alpha virt. eigenvalues --    0.41918   0.41926   0.41940   0.42289   0.42318
 Alpha virt. eigenvalues --    0.42643   0.43748   0.44233   0.44835   0.45295
 Alpha virt. eigenvalues --    0.45683   0.45924   0.45953   0.46379   0.47165
 Alpha virt. eigenvalues --    0.47805   0.47809   0.47978   0.48073   0.48231
 Alpha virt. eigenvalues --    0.48568   0.49414   0.49572   0.51377   0.51846
 Alpha virt. eigenvalues --    0.52370   0.53118   0.53671   0.55998   0.57923
 Alpha virt. eigenvalues --    0.57955   0.59048   0.59201   0.60433   0.60585
 Alpha virt. eigenvalues --    0.60693   0.61101   0.61690   0.62105   0.62173
 Alpha virt. eigenvalues --    0.63432   0.63481   0.64458   0.64535   0.65533
 Alpha virt. eigenvalues --    0.66693   0.66910   0.67680   0.67724   0.70658
 Alpha virt. eigenvalues --    0.71305   0.71405   0.71494   0.72803   0.73989
 Alpha virt. eigenvalues --    0.75405   0.75894   0.76289   0.77801   0.77809
 Alpha virt. eigenvalues --    0.78943   0.79160   0.79723   0.81162   0.81509
 Alpha virt. eigenvalues --    0.82881   0.83001   0.84383   0.84585   0.84713
 Alpha virt. eigenvalues --    0.88087   0.89711   0.89765   0.91536   0.92083
 Alpha virt. eigenvalues --    0.92578   0.93749   0.95806   0.96107   0.96442
 Alpha virt. eigenvalues --    0.96590   0.96905   0.98547   1.00356   1.01118
 Alpha virt. eigenvalues --    1.02686   1.03027   1.03354   1.04405   1.05244
 Alpha virt. eigenvalues --    1.05439   1.05525   1.05950   1.07395   1.07547
 Alpha virt. eigenvalues --    1.07686   1.08438   1.10005   1.10036   1.12070
 Alpha virt. eigenvalues --    1.13223   1.13544   1.13650   1.14526   1.15341
 Alpha virt. eigenvalues --    1.17432   1.18332   1.19657   1.20432   1.23014
 Alpha virt. eigenvalues --    1.23618   1.27884   1.28234   1.30579   1.32076
 Alpha virt. eigenvalues --    1.32743   1.34942   1.37641   1.39236   1.39896
 Alpha virt. eigenvalues --    1.39942   1.40725   1.42751   1.43476   1.43554
 Alpha virt. eigenvalues --    1.45057   1.46086   1.47119   1.47538   1.48841
 Alpha virt. eigenvalues --    1.49280   1.49417   1.50258   1.50674   1.52268
 Alpha virt. eigenvalues --    1.52650   1.53402   1.54331   1.54372   1.54781
 Alpha virt. eigenvalues --    1.54807   1.57107   1.57715   1.58569   1.59882
 Alpha virt. eigenvalues --    1.60106   1.62692   1.63242   1.64856   1.66641
 Alpha virt. eigenvalues --    1.69292   1.69605   1.69709   1.70649   1.71804
 Alpha virt. eigenvalues --    1.72459   1.72619   1.73075   1.73096   1.73680
 Alpha virt. eigenvalues --    1.77494   1.78519   1.79157   1.79419   1.80511
 Alpha virt. eigenvalues --    1.81616   1.81887   1.82058   1.83581   1.84039
 Alpha virt. eigenvalues --    1.85487   1.87392   1.87456   1.87577   1.87728
 Alpha virt. eigenvalues --    1.88131   1.88613   1.90743   1.91387   1.92190
 Alpha virt. eigenvalues --    1.92193   1.92572   1.92670   1.93517   1.93938
 Alpha virt. eigenvalues --    1.94544   1.95483   1.97262   1.99429   2.00088
 Alpha virt. eigenvalues --    2.00602   2.01362   2.03019   2.05757   2.08293
 Alpha virt. eigenvalues --    2.09111   2.09256   2.09792   2.12192   2.14098
 Alpha virt. eigenvalues --    2.15528   2.15584   2.17200   2.19751   2.20833
 Alpha virt. eigenvalues --    2.21576   2.22525   2.23381   2.24503   2.26441
 Alpha virt. eigenvalues --    2.26972   2.27242   2.27719   2.28046   2.29391
 Alpha virt. eigenvalues --    2.33301   2.35725   2.39155   2.39384   2.40817
 Alpha virt. eigenvalues --    2.42649   2.43076   2.45776   2.45994   2.46870
 Alpha virt. eigenvalues --    2.51623   2.51954   2.53354   2.53485   2.55138
 Alpha virt. eigenvalues --    2.56159   2.58701   2.58838   2.59764   2.59776
 Alpha virt. eigenvalues --    2.60682   2.61147   2.61719   2.62222   2.63349
 Alpha virt. eigenvalues --    2.63999   2.64478   2.66054   2.66794   2.67121
 Alpha virt. eigenvalues --    2.67374   2.68356   2.68872   2.68876   2.69372
 Alpha virt. eigenvalues --    2.69557   2.69907   2.70083   2.70281   2.73482
 Alpha virt. eigenvalues --    2.74771   2.74836   2.76066   2.77101   2.77577
 Alpha virt. eigenvalues --    2.78232   2.78455   2.78850   2.80822   2.82359
 Alpha virt. eigenvalues --    2.85535   2.85993   2.86737   2.87294   2.90966
 Alpha virt. eigenvalues --    2.91783   2.92195   2.93676   2.95232   2.95887
 Alpha virt. eigenvalues --    2.99270   2.99858   3.03165   3.05604   3.06852
 Alpha virt. eigenvalues --    3.07371   3.15988   3.16029   3.16647   3.19843
 Alpha virt. eigenvalues --    3.20017   3.23601   3.29134   3.29680   3.31610
 Alpha virt. eigenvalues --    3.35095   3.35458   3.35677   3.35858   3.38023
 Alpha virt. eigenvalues --    3.39887   3.41413   3.44960   3.45362   3.47993
 Alpha virt. eigenvalues --    3.48278   3.50401   3.53073   3.57439   3.58649
 Alpha virt. eigenvalues --    3.61466   3.62620   3.63208   3.63698   3.65910
 Alpha virt. eigenvalues --    3.67534   3.67678   4.00384   4.00442   4.01859
 Alpha virt. eigenvalues --    4.02182   4.16133   4.16678   4.17360   4.21240
 Alpha virt. eigenvalues --    4.22396   4.22517   4.25488   4.38492   4.62290
 Alpha virt. eigenvalues --    4.79179   4.79740   4.80562   4.82562   4.83014
 Alpha virt. eigenvalues --   23.39176  23.54541  23.69085  23.77378  23.80419
 Alpha virt. eigenvalues --   23.81537  23.86099  23.89067  23.89154  23.92210
 Alpha virt. eigenvalues --   23.97563  23.98365  24.09049  24.09932  24.10529
 Alpha virt. eigenvalues --   24.12220  24.13779  24.14375  24.15775  24.15810
 Alpha virt. eigenvalues --   24.20452  24.20497
          Condensed to atoms (all electrons):
 Mulliken charges:
               1
     1  C    0.000000
     2  C    0.000000
     3  C    0.000000
     4  C    0.000000
     5  C    0.000000
     6  C    0.000000
     7  C    0.000000
     8  C    0.000000
     9  C    0.000000
    10  C    0.000000
    11  H    0.000000
    12  H    0.000000
    13  H    0.000000
    14  H    0.000000
    15  H    0.000000
    16  H    0.000000
    17  C    0.000000
    18  C    0.000000
    19  C    0.000000
    20  C    0.000000
    21  H    0.000000
    22  H    0.000000
    23  C    0.000000
    24  C    0.000000
    25  C    0.000000
    26  C    0.000000
    27  H    0.000000
    28  H    0.000000
    29  C    0.000000
    30  C    0.000000
    31  C    0.000000
    32  C    0.000000
    33  H    0.000000
    34  H    0.000000
    35  H    0.000000
    36  H    0.000000
    37  C   -0.059168
    38  C   -0.059168
    39  C   -0.055977
    40  C   -0.055977
    41  C   -0.092198
    42  C   -0.092198
    43  C   -0.016525
    44  C   -0.054498
    45  C   -0.016525
    46  C   -0.054498
    47  H    0.082122
    48  H    0.074853
    49  H    0.074853
    50  H    0.082122
    51  H    0.094847
    52  H    0.094847
    53  C   -0.020341
    54  C   -0.054498
    55  C   -0.020341
    56  C   -0.054498
    57  H    0.073428
    58  H    0.073428
    59  C   -0.016525
    60  C   -0.059168
    61  C   -0.016525
    62  C   -0.059168
    63  H    0.074853
    64  H    0.074853
    65  C   -0.055977
    66  C   -0.092198
    67  C   -0.055977
    68  C   -0.092198
    69  H    0.082122
    70  H    0.094847
    71  H    0.094847
    72  H    0.082122
 Sum of Mulliken charges =   0.00000
 Mulliken charges with hydrogens summed into heavy atoms:
               1
     1  C    0.000000
     2  C    0.000000
     3  C    0.000000
     4  C    0.000000
     5  C    0.000000
     6  C    0.000000
     7  C    0.000000
     8  C    0.000000
     9  C    0.000000
    10  C    0.000000
    17  C    0.000000
    18  C    0.000000
    19  C    0.000000
    20  C    0.000000
    23  C    0.000000
    24  C    0.000000
    25  C    0.000000
    26  C    0.000000
    29  C    0.000000
    30  C    0.000000
    31  C    0.000000
    32  C    0.000000
    37  C   -0.059168
    38  C   -0.059168
    39  C    0.026144
    40  C    0.026144
    41  C    0.002649
    42  C    0.002649
    43  C    0.058328
    44  C   -0.054498
    45  C    0.058328
    46  C   -0.054498
    53  C    0.053087
    54  C   -0.054498
    55  C    0.053087
    56  C   -0.054498
    59  C    0.058328
    60  C   -0.059168
    61  C    0.058328
    62  C   -0.059168
    65  C    0.026144
    66  C    0.002649
    67  C    0.026144
    68  C    0.002649
         Mulliken charges condensed to fragments:
      1      0.000000
      2      0.000000
 Electronic spatial extent (au):  <R**2>=          19856.0385
 Charge=              0.0000 electrons
 Dipole moment (field-independent basis, Debye):
    X=              0.0000    Y=              0.0000    Z=              0.0000  Tot=              0.0000
 Quadrupole moment (field-independent basis, Debye-Ang):
   XX=           -136.3921   YY=           -110.7480   ZZ=           -109.0115
   XY=              0.0000   XZ=              0.0000   YZ=              0.0000
 Traceless Quadrupole moment (field-independent basis, Debye-Ang):
   XX=            -17.6749   YY=              7.9692   ZZ=              9.7057
   XY=              0.0000   XZ=              0.0000   YZ=              0.0000
 Octapole moment (field-independent basis, Debye-Ang**2):
  XXX=           1301.9906  YYY=           1057.1942  ZZZ=              0.0000  XYY=            352.3981
  XXY=            433.9969  XXZ=              0.0000  XZZ=            346.8724  YZZ=            346.8724
  YYZ=              0.0000  XYZ=              0.0000
 Hexadecapole moment (field-independent basis, Debye-Ang**3):
 XXXX=          -8440.2215 YYYY=          -7844.6597 ZZZZ=         -10461.4324 XXXY=          -4142.9088
 XXXZ=              0.0000 YYYX=          -3363.9715 YYYZ=              0.0000 ZZZX=              0.0000
 ZZZY=              0.0000 XXYY=          -2758.7088 XXZZ=          -3311.6732 YYZZ=          -3072.9556
 XXYZ=              0.0000 YYXZ=              0.0000 ZZXY=          -1103.7412
 N-N= 1.494327111597D+03 E-N=-4.953709174724D+03  KE= 8.433374904838D+02
 Symmetry A'   KE= 4.567052305353D+02
 Symmetry A"   KE= 3.866322599485D+02
 No NMR shielding tensors so no spin-rotation constants.
 Leave Link  601 at Wed Sep 27 17:17:56 2023, MaxMem=  3221225472 cpu:              18.8 elap:               0.5
 (Enter /home/center/opt/aarch64/apps/gaussian16/c01/g16/l122.exe)
 CPIOFr:  IOpCl= 0 IRwI=-1 IRwCP=  731 ICalc=  4 LCPTot=     1419224 Len1MO=     3708034 IndFrg=    19959394
 Restoring MOs from calculation   1 to rwf.
 CPIOFr:  IOpCl= 0 IRwI=-2 IRwCP=  731 ICalc=  0 LCPTot=     1419224 Len1MO=     3708034 IndFrg=     5127258
 Counterpoise corrected energy =   -1694.040635791327
                   BSSE energy =      -0.000001056163
              sum of fragments =   -1694.039683044259
           complexation energy =      -0.60 kcal/mole (raw)
           complexation energy =      -0.60 kcal/mole (corrected)
 Leave Link  122 at Wed Sep 27 17:17:59 2023, MaxMem=  3221225472 cpu:               8.3 elap:               0.3
 (Enter /home/center/opt/aarch64/apps/gaussian16/c01/g16/l9999.exe)

 Test job not archived.
 1\1\GINC-FX0493\SP\RB3LYP\6-311G(d,p)\C44H28\Z40145W\27-Sep-2023\0\\#P
  TEST b3lyp/6-311G** EmpiricalDispersion=GD3 counterpoise=2\\pentacene
 _A1=0_A2=0_A3=45_p2\\0,1\C,0,-0.5039478476,0.5239478476,-3.6612755801\
 C,0,0.5239480325,-0.5039480325,-3.6612755629\C,0,-0.9861248463,1.00612
 48463,-4.9235927708\C,0,1.0061250889,-0.9861250889,-4.9235926697\C,0,-
 0.4963213507,0.5163213507,-6.096356521\C,0,0.5163216812,-0.4963216812,
 -6.0963564796\C,0,-0.9844684311,1.0044684311,-2.4533174875\C,0,-0.5044
 88426,0.524488426,-1.2140288145\C,0,1.0044685359,-0.9844685359,-2.4533
 173917\C,0,0.5244885437,-0.5044885437,-1.2140288362\H,0,-1.7533559667,
 1.7733559667,-4.9232600459\H,0,-1.7521866813,1.7721866813,-2.453928581
 5\H,0,1.7721859268,-1.7521859268,-2.4539284818\H,0,1.7733558421,-1.753
 3558421,-4.9232597785\H,0,0.8905568758,-0.8705568758,-7.0425276922\H,0
 ,-0.8705565046,0.8905565046,-7.042527775\C,0,-0.9848184961,1.004818496
 1,0.0099998782\C,0,-0.5044883957,0.5244883957,1.2340295553\C,0,1.00481
 85643,-0.9848185643,0.0099998696\C,0,0.5244885146,-0.5044885146,1.2340
 295261\H,0,-1.7524699697,1.7724699697,0.0099999205\H,0,1.772468921,-1.
 752468921,0.0099999641\C,0,-0.9844683048,1.0044683048,2.4733171385\C,0
 ,-0.5039477114,0.5239477114,3.681276331\C,0,1.0044684211,-0.9844684211
 ,2.4733170835\C,0,0.5239479079,-0.5039479079,3.6812763217\H,0,-1.75218
 65527,1.7721865527,2.4739285326\H,0,1.7721858092,-1.7521858092,2.47392
 83796\C,0,-0.9861245177,1.0061245177,4.9435920588\C,0,-0.4963209372,0.
 5163209372,6.116356633\C,0,1.0061247659,-0.9861247659,4.9435919377\C,0
 ,0.5163212637,-0.4963212637,6.1163566075\H,0,-1.7533556504,1.773355650
 4,4.9432601504\H,0,-0.8705567426,0.8905567426,7.0625274368\H,0,0.89055
 70967,-0.8705570967,7.0625272142\H,0,1.7733555414,-1.7533555414,4.9432
 599297\C,0,8.4960521524,0.5239478476,-3.6612755801\C,0,9.5239480325,-0
 .5039480325,-3.6612755629\C,0,8.0138751537,1.0061248463,-4.9235927708\
 C,0,10.0061250889,-0.9861250889,-4.9235926697\C,0,8.5036786493,0.51632
 13507,-6.096356521\C,0,9.5163216812,-0.4963216812,-6.0963564796\C,0,8.
 0155315689,1.0044684311,-2.4533174875\C,0,8.495511574,0.524488426,-1.2
 140288145\C,0,10.0044685359,-0.9844685359,-2.4533173917\C,0,9.52448854
 37,-0.5044885437,-1.2140288362\H,0,7.2466440333,1.7733559667,-4.923260
 0459\H,0,7.2478133187,1.7721866813,-2.4539285815\H,0,10.7721859268,-1.
 7521859268,-2.4539284818\H,0,10.7733558421,-1.7533558421,-4.9232597785
 \H,0,9.8905568758,-0.8705568758,-7.0425276922\H,0,8.1294434954,0.89055
 65046,-7.042527775\C,0,8.0151815039,1.0048184961,0.0099998782\C,0,8.49
 55116043,0.5244883957,1.2340295553\C,0,10.0048185643,-0.9848185643,0.0
 099998696\C,0,9.5244885146,-0.5044885146,1.2340295261\H,0,7.2475300303
 ,1.7724699697,0.0099999205\H,0,10.772468921,-1.752468921,0.0099999641\
 C,0,8.0155316952,1.0044683048,2.4733171385\C,0,8.4960522886,0.52394771
 14,3.681276331\C,0,10.0044684211,-0.9844684211,2.4733170835\C,0,9.5239
 479079,-0.5039479079,3.6812763217\H,0,7.2478134473,1.7721865527,2.4739
 285326\H,0,10.7721858092,-1.7521858092,2.4739283796\C,0,8.0138754823,1
 .0061245177,4.9435920588\C,0,8.5036790628,0.5163209372,6.116356633\C,0
 ,10.0061247659,-0.9861247659,4.9435919377\C,0,9.5163212637,-0.49632126
 37,6.1163566075\H,0,7.2466443496,1.7733556504,4.9432601504\H,0,8.12944
 32574,0.8905567426,7.0625274368\H,0,9.8905570967,-0.8705570967,7.06252
 72142\H,0,10.7733555414,-1.7533555414,4.9432599297\\Version=Fujitsu-Ar
 m-G16RevC.01\State=1-A'\HF=-847.0198415\RMSD=3.182e-09\Dipole=0.000020
 7,-0.0000207,0.\Quadrupole=-7.7321622,-6.685189,14.4173512,-18.4800291
 ,0.,0.\PG=CS [SG(C4H4),X(C40H24)]\\@


 THE WHOLE OF SCIENCE IS NOTHING MORE THAN A REFINEMENT OF EVERYDAY THINKING.
                                                              -- A. EINSTEIN
 Job cpu time:       0 days  2 hours 36 minutes 51.1 seconds.
 Elapsed time:       0 days  0 hours  4 minutes  8.1 seconds.
 File lengths (MBytes):  RWF=    718 Int=      0 D2E=      0 Chk=    208 Scr=      1
 Normal termination of Gaussian 16 at Wed Sep 27 17:18:04 2023.
